<?xml version="1.0"?>
<VTKFile type="ImageData" version="0.1" byte_order="LittleEndian" header_type="UInt32" compressor="vtkZLibDataCompressor">
  <ImageData WholeExtent="0 300 0 100 0 0" Origin="0 0 0" Spacing="0.01 0.01 1" Direction="1 0 0 0 1 0 0 0 1">
  <Piece Extent="0 300 0 100 0 0">
    <PointData>
    </PointData>
    <CellData Scalars="head">
      <DataArray type="Float64" Name="head" format="ascii" RangeMin="0.001046759324952659" RangeMax="0.9993184912404374">
        0.9986872322870932 0.9958796590522475 0.9927820998858367 0.9899757884839048 0.9875044929518427 0.9849814977013396
        0.9824969420807611 0.9799892606364735 0.9774760109188656 0.9749449431928274 0.9726918497381273 0.9706667213615864
        0.9684311821274285 0.9660464311190778 0.9636617110997366 0.9612285903036164 0.9585065609892922 0.9553508074768189
        0.952200122605418 0.9494587834516374 0.9468603652644727 0.9442385089144175 0.9418035768948585 0.9399093624596804
        0.9385526495145138 0.9372916632944831 0.935828307049862 0.9342341248780245 0.9326887763312397 0.9312816832574987
        0.9298736723769567 0.9285615741748985 0.92741444635777 0.9261766224011945 0.9248483406784038 0.9233980092359135
        0.9215843450265195 0.9194487322784265 0.9172774199720789 0.9153361328669548 0.9134772040800351 0.9113003067412556
        0.9089784702584848 0.9068750300449753 0.9049039852154612 0.9029467571772316 0.9008591319516397 0.8988667843929057
        0.8971317053698269 0.8953458401414727 0.8935529004845089 0.8917252727347708 0.8895535725038288 0.8869447738246394
        0.8840588048577329 0.8810062108905278 0.8779153438115982 0.8749382693004748 0.8722588630225449 0.8701288444764279
        0.8675869421611554 0.8644479446030008 0.8610271935047846 0.8577511561797503 0.8548415320050081 0.8519870844832429
        0.8490560241943442 0.8458629402848805 0.8420913834085576 0.8385333747960464 0.8356649947728257 0.8329478441297885
        0.8302071682082244 0.827435969143209 0.8249570519428443 0.8227840684582294 0.8205030180618734 0.8181885589248652
        0.8158639814757151 0.8135149914988004 0.8109663155974925 0.8078400946911166 0.8045678145438151 0.8014093405054387
        0.7981002253645326 0.7941376595062106 0.7900978091799261 0.7866919573379422 0.7836675302188706 0.7806647290495976
        0.7771941236128501 0.7733711710131735 0.7698705858584527 0.7670002435558374 0.7643309704063525 0.761639355602032
        0.7588071236396073 0.755637079147504 0.7524642283586387 0.7490689922676826 0.744651773398589 0.7400482260032155
        0.7358754678778276 0.7320904669240366 0.7288660670208846 0.7258343250709028 0.7226817500437892 0.7186823000606991
        0.7137629997135386 0.7088589395856947 0.7043169140275913 0.6994036437286459 0.6942804377764713 0.6896408878785579
        0.6854277882596265 0.682096936784578 0.678639766486454 0.6746789590508325 0.6706839713306949 0.6666159319565814
        0.662778248163672 0.6591894258523202 0.6557496426412628 0.6517253737480514 0.6471228714844451 0.6429055200321917
        0.6392165187373637 0.6355390595771158 0.631773521432088 0.6278518704654422 0.6238691373364406 0.6194710761377571
        0.6152182882714707 0.6118784514823401 0.6088110425033073 0.6055611772369734 0.6022788028477746 0.5991233048637259
        0.5959543350388926 0.5928376830518736 0.5894794195439685 0.586313691739494 0.5837542477260338 0.5812038451770275
        0.57834188063225 0.5754013998073363 0.5719978883923034 0.5677895343146445 0.563216329205866 0.5583573408564717
        0.5531532888075823 0.5476575581089298 0.5423264872030258 0.5373322283318669 0.5322755902369142 0.5274154595164474
        0.522951509015759 0.5187453239034635 0.5143074476656051 0.509957531947614 0.5059604202240039 0.5020706068818865
        0.49808374703783576 0.49342477325282175 0.4882501817277327 0.48292813656288447 0.4781553594000771 0.47419163710905105
        0.46994044700654247 0.4647219674948062 0.45836845559980827 0.45153231113271697 0.4440385067773268 0.43644915629230485
        0.4299699023433859 0.4248285448074667 0.4208260372002269 0.41687674173752426 0.4122793424742249 0.4075094309758123
        0.4031073521850495 0.3985036691617414 0.3937472433894004 0.38887418082361175 0.38277800235889237 0.376390832733815
        0.3707508377675987 0.3645673885228904 0.35799222333550756 0.3524267398217225 0.34756951714932155 0.34275801855074167
        0.3375548066544974 0.33194503472792114 0.32656803845323107 0.32150710716301417 0.3168257587094416 0.3128803111377743
        0.3097030029987908 0.3072031549253675 0.30487386075420625 0.3024430302686301 0.2999238523374396 0.29721930233084853
        0.29447249303222445 0.2915411487399017 0.28827388664829245 0.285308352287714 0.2824904895582862 0.27923643525216824
        0.27587765652811885 0.27225117075998445 0.26842470560627874 0.26475777810071505 0.2616597552088469 0.25892176715841436
        0.2561999861439502 0.2535527002974657 0.25078580793378885 0.24812952586911463 0.245645078496037 0.24302061475656875
        0.24046930627627658 0.2382651412421759 0.2362065313243458 0.23414530436902983 0.23202370582477805 0.22963924568251531
        0.2272874020224434 0.22501851409850931 0.2226707665212798 0.22022310904030237 0.21774910149559065 0.21522069829868742
        0.21189686857736398 0.20767109185989305 0.20365494011181434 0.19983272272995029 0.19585802111875342 0.19205138342213396
        0.1885454059812083 0.18503546529098824 0.18077931154235394 0.17604821699565795 0.17171634742826616 0.16794415455964132
        0.1644265422192534 0.16098870964518244 0.15778819959664891 0.1549907851453979 0.15233230564216277 0.14965459639916048
        0.14706476514178843 0.14453977805304027 0.14192300573928174 0.1389919126756789 0.13604339124654063 0.13318956177157057
        0.12996514623053837 0.12652207818304448 0.12336538080684369 0.1205779809005986 0.11795984350018933 0.11507172721510804
        0.11194937741695002 0.10880832804225118 0.10559238414807463 0.10208976991484761 0.09842957882812477 0.09435135557708912
        0.08993795636889897 0.08576703622458352 0.0813630587481996 0.07708419484306903 0.07375337558682585 0.07059974598593236
        0.06735655520973446 0.06446902427002552 0.061216344604838324 0.05746058986464785 0.05390289586534804 0.050551646930984045
        0.04697232530024167 0.0437462543163275 0.04113038743414206 0.038763511669524166 0.03653364683343613 0.034154081889860986
        0.031738722638164026 0.0293571273795349 0.026940572936149966 0.024724050232857973 0.022624616203776843 0.020143593666849983
        0.017211544509860184 0.013898281875168958 0.010491812555947807 0.007311608761703743 0.0042382667159918215 0.0013405006603930023
        0.9985948917565867 0.9955735986115721 0.9925582160219608 0.9899090375688484 0.9874300653971751 0.9849159639476524
        0.9825358259284618 0.9800767050243205 0.977410204839099 0.9748793560477229 0.9725051785335782 0.9703460817105782
        0.9682359781070127 0.9658804411957695 0.9635283710118828 0.9611876628889948 0.9585506318688142 0.9557120104782487
        0.9528779606770952 0.9500484875375835 0.9472361670122712 0.9446132384767685 0.9422166038616165 0.9402128952442712
        0.9387142754731904 0.9373251114278367 0.935900466931473 0.9343379745312027 0.9327563622382506 0.9312679472741299
        0.9297695332352132 0.9284796043268679 0.9273628330945747 0.92616444169905 0.9248316241785612 0.9232275684839656
        0.9214316515380798 0.9195099230830185 0.9173930751489325 0.9153227373412955 0.9133859834955274 0.9113095087896886
        0.9090991692615525 0.9069468962595031 0.9048993293847862 0.902927967280293 0.9009496800395671 0.8989786228271313
        0.8970891926489006 0.8951796444836996 0.8933535236260525 0.8914966260115328 0.8893303325248272 0.886792033577049
        0.8840320395250469 0.8814236422196625 0.8783928661239122 0.875205914078928 0.8723741672871274 0.8699617537944897
        0.8673430217918968 0.8641952185490609 0.8607270662082718 0.8574004138800443 0.8544762310802722 0.8515888501521768
        0.8485478138858873 0.845258263346257 0.8418336199599136 0.8386090436874379 0.8358146264890902 0.8332402553088153
        0.8304890643704187 0.8277285821184731 0.8251613569480525 0.8228383665973111 0.8206085190881693 0.8183056479884468
        0.8159067909162228 0.8133566754569189 0.8106298623829095 0.8076964986539608 0.8046054802695669 0.801264021689297
        0.797848315650937 0.7943021399009879 0.7906274138103491 0.7871045883694809 0.7836270615515356 0.7804004075094366
        0.7772522112089723 0.7738557366251847 0.7703914060021116 0.7673717347970846 0.7645688914114427 0.7617239836933146
        0.7588502572442803 0.7556859003899036 0.7523379574255353 0.7486255418546482 0.7443412373418168 0.7401192892296703
        0.7362012790592327 0.732298453563318 0.7286942690955424 0.7254735107885222 0.7222560950127229 0.7183022032133846
        0.7135180284130236 0.7084574902539662 0.7039066634446154 0.699239402802871 0.6942833067753827 0.6896391475886742
        0.6854334891806325 0.681819634750661 0.678308390207094 0.674559404432031 0.6707731140565565 0.6668560515315491
        0.6626449611481616 0.658900772827753 0.655364996703203 0.6515621542170411 0.6475389851151725 0.6433858735374415
        0.6392692070549214 0.6352071355107571 0.6313635672188802 0.6275580718863083 0.6233861205327486 0.6191281601857918
        0.6153236494944714 0.6118348060051393 0.6087353687721037 0.6056581858249491 0.6023174856590946 0.5990516450975633
        0.5958787501644645 0.5926423937160041 0.5894216926299821 0.5866289976173501 0.5839098378315595 0.5812278464734003
        0.5784461866002545 0.5751873004598869 0.5716800605933339 0.567813699584673 0.5633893837228782 0.558699684612502
        0.5536979979220357 0.5483689542065489 0.5430674552755332 0.5377926073367404 0.5327866566478533 0.5282277705397339
        0.5237195025129019 0.5191412966721621 0.5146643730886032 0.5104198879278214 0.5064119200874437 0.5025068087748421
        0.49802016417013656 0.4931323808407657 0.4881406094208122 0.48319160886571855 0.4784673495139439 0.4739208286339273
        0.4693756308581932 0.4640548268100405 0.45816998344119875 0.4520789367895186 0.4448793895311511 0.43755892385347717
        0.43122711325578306 0.425807923940483 0.42078948039532543 0.41612964284747994 0.41188609941321214 0.4074645123444986
        0.40311967219491746 0.39877252045361805 0.3940481695469426 0.38863338866339925 0.38261023329818866 0.37652264889992304
        0.37040947228181803 0.36366897800997644 0.35730894272115926 0.3520585398354519 0.3470185241506962 0.34216851088241257
        0.3370336615528484 0.3317238603418679 0.32689559379723737 0.3222365707193041 0.31752097874418167 0.3134242538249498
        0.310161076349174 0.3073619318038174 0.3047857885193237 0.3022911372844984 0.29980157554988923 0.2972817562265335
        0.2946136696763815 0.29161361657308355 0.288562833996824 0.28538650973632124 0.28222902686743606 0.27899542094756064
        0.27543263050349576 0.27179568631380063 0.26841005288170455 0.2649082643233693 0.26159641815518925 0.2588973843584646
        0.2562901424724133 0.25368985761415513 0.2509168706965123 0.24807662028208932 0.24542740347356776 0.2428873332035711
        0.24047072764847716 0.23821852842497224 0.23611181276856616 0.23406181795761896 0.23193904519027192 0.22963216566743871
        0.22747040873817825 0.22522981676903164 0.22261744058928865 0.22012561625018426 0.21775709962376327 0.21502496490295703
        0.2114409432225562 0.20749335619225825 0.20340667355175598 0.19915551370298554 0.195240562303611 0.19180780733383507
        0.18841983309411067 0.18469049327142262 0.18084813137945685 0.17663174655890782 0.17235064472059367 0.16868738332382352
        0.16516371989023446 0.16132759006872896 0.15786361012655548 0.1549489460885329 0.15212828577868 0.14959123342978964
        0.14722030209652237 0.14479000369330372 0.1421062826054684 0.139064493230936 0.13594888624548532 0.13287348835334215
        0.1298966749585293 0.12677798077310315 0.12357177148520757 0.12052173170227938 0.11761075324826432 0.1146553345498012
        0.11154727934100794 0.10847443261071178 0.10542781082746222 0.1019123458919111 0.09817366687840533 0.09443161316283817
        0.08996577544795464 0.08534441726083128 0.0812182545754412 0.07753424284490795 0.07406856190944885 0.07045190204322171
        0.06737440218950556 0.06427368009607512 0.060618103850518315 0.05701210404221172 0.05362432073251714 0.05022627790266226
        0.04696299808341482 0.04402075302054351 0.04139320291512336 0.039067647326385645 0.036669263918901185 0.034174365271303055
        0.031790846265096394 0.029420023425587766 0.026986218077538312 0.024637097828278227 0.022229604434888948 0.019638262612080782
        0.01686102818867133 0.013775959553683013 0.010570760241832141 0.007413773953808853 0.004419810635053927 0.0014726162093371005
        0.998544728863326 0.995547472078807 0.9926476210935691 0.989967837075705 0.9872637173706559 0.9844773399870496
        0.9819665514157608 0.9794646990023392 0.9768819823091113 0.9745287775553648 0.9723395151098291 0.9703070761429129
        0.9682483139106651 0.965817608067482 0.9634689642618035 0.9611838597992362 0.9584161354722416 0.9557582722734914
        0.9533509802899458 0.9506597943835478 0.9478604649772311 0.9451583104521402 0.9428173837951817 0.9408339576821665
        0.939141762396507 0.9375768096321417 0.936020740320131 0.9344887553866683 0.9328704498676681 0.9312669444493444
        0.9298409905808799 0.92849633511846 0.9272522555018736 0.9260490509279198 0.9246264240894875 0.9230160174076032
        0.921363905435536 0.9193657802487079 0.9172868832506639 0.9153518126526589 0.9135149950497097 0.9116179586213166
        0.9095446981887961 0.9073679685444688 0.905052841778416 0.9028715568538975 0.9009880883617933 0.8991267687646223
        0.8972035550897277 0.8952926122418572 0.8933417470460752 0.8912651140582799 0.8889724636116286 0.8863859334473632
        0.8837729009343316 0.8812671498270478 0.8784461921501276 0.8752261606298307 0.8721773355086864 0.8695504558685845
        0.8667876414431863 0.8637744924978753 0.8604109976475908 0.8570628327507699 0.8539984183607567 0.8509654022236265
        0.8479113620416124 0.8449300050931741 0.8420026932477449 0.8390179834565076 0.836289780825563 0.8337253775347804
        0.8308622704370944 0.8280141756490975 0.8253739174409955 0.8230267055158728 0.8208936893761722 0.8184839029961228
        0.8159087562029478 0.8131570816324908 0.8103216437719475 0.8073734738402815 0.8041613622324363 0.8007732404786785
        0.7974476535855742 0.7943887849445956 0.7909424581847494 0.7872652614816524 0.7836539592424929 0.7802657645794281
        0.7773323322550434 0.7743731283184603 0.7711905351872067 0.7679214840927587 0.7647364394278735 0.7615576388109241
        0.7585896608481215 0.7555407452324169 0.7519229180430886 0.7480104202459207 0.7441647769375331 0.7401659118811065
        0.7360706347024447 0.7321302935543238 0.7286278510044564 0.725308948732978 0.7218067010799348 0.7177684308997382
        0.7128629436952126 0.707918572997591 0.7032844554957192 0.6987106490739365 0.6939776080835622 0.6891134215060384
        0.6848582264449659 0.681340150158961 0.6780499864136139 0.6747607491668878 0.6708352804783834 0.6664643761970477
        0.662327942381627 0.6588617785244741 0.6552901631228989 0.6513135401872946 0.647455846301271 0.6432158329787926
        0.6388696142348103 0.6347590784124111 0.6307317214870296 0.6268703459595797 0.6229971725656609 0.6190945207524943
        0.6154524592216187 0.6119594711566962 0.6085856419056899 0.6054634586199047 0.6023947695048465 0.5994390717858747
        0.5963722779504176 0.5929616065654151 0.5896981184279471 0.5869017240422846 0.5840218541437204 0.5810188249437177
        0.5780949742678002 0.5749601333456561 0.5715333121305306 0.5678604919905684 0.5637049512187832 0.5590849730829074
        0.5540175726957217 0.5488695289782543 0.5440631563788003 0.5390854056457518 0.5337259796541389 0.5288902798992587
        0.5247742823897203 0.5205475179160479 0.51592756415309 0.511367780935291 0.5071990651367362 0.5029923183316658
        0.4982715014793131 0.49337603106119376 0.48851944924729135 0.4834787073230648 0.478383044825979 0.47347318874439903
        0.4688327231745495 0.46355330504991965 0.4579467774965816 0.4520159829012888 0.4448700897596259 0.4378586885371613
        0.4320412515823091 0.4269716610653128 0.4215952620923909 0.41630678398046866 0.41200659233241016 0.40766013180632393
        0.40324204176259365 0.39897967509561677 0.3939631827574135 0.38814823104756274 0.3820838215176316 0.37572163365917155
        0.36905620285704294 0.36276082574177015 0.3572305380793523 0.3519651169708392 0.34685398108923526 0.3419983283829684
        0.33683560093556275 0.33173151947660645 0.3272139367268101 0.32270870344932934 0.3181630388947646 0.3141276762034165
        0.3106282238424512 0.30754150916617573 0.3048837529024875 0.3024361932551298 0.3000170627855797 0.29738420003352256
        0.29458988407036585 0.29176530060488065 0.28866274515144014 0.2852726305236815 0.28183373367150966 0.278464206120806
        0.27494907970963445 0.2714014010854807 0.2682372171984937 0.2650381694882696 0.2618157116255753 0.25900296255059674
        0.2563311913320717 0.2534789057994826 0.2505296559579989 0.24776697222731084 0.2452408954029847 0.24278420175483978
        0.24044488742150527 0.23831321194550525 0.23615187632694276 0.23402587993227872 0.2318520551863373 0.22975268691492265
        0.22780531227501316 0.22554227009872124 0.2228636365733675 0.22017419099041766 0.21749526451080523 0.21440724114935542
        0.21074148364730524 0.20688114021400966 0.20288105889366198 0.19873575496086163 0.1949473974069658 0.19157182137971576
        0.1881243577418042 0.18440011480060747 0.18054006159782637 0.1765708852630778 0.17280410327094317 0.1693498166950176
        0.1654835628444266 0.16131616159574463 0.1577722533524591 0.15479707092042155 0.152018789705094 0.1495647997812324
        0.14715087715292335 0.14475829566388038 0.14234273916697632 0.1394621907664967 0.13651489238034145 0.13330921342845714
        0.12990878952039786 0.12667056686605352 0.12351395104720722 0.12039114493060639 0.11742892014072434 0.11456303736752603
        0.1113714442751959 0.10807749140522528 0.10476265093805961 0.10114788029608514 0.09750449598686517 0.09385660869943512
        0.08990672584793162 0.08562896909523518 0.0816452908149947 0.07808573640147447 0.07424635013008093 0.07042695169102924
        0.06693773070760985 0.06341580847814214 0.059941118548446755 0.056697350800797845 0.05354673995854715 0.05043527370069429
        0.047158302328105854 0.04402051989739812 0.04118315272657054 0.03878996275268327 0.0366559617690055 0.03424773806704843
        0.031777960833945636 0.029221689619034354 0.026805183899224722 0.02448835041955474 0.021936587865897923 0.019384239036300464
        0.01682667545495078 0.01388547585186213 0.010688839201354544 0.007443871505857045 0.004400086218466203 0.0014927677898254619
        0.9985750558721425 0.9956608118216518 0.9927152424482518 0.9896791577594037 0.9867420467955408 0.9840991125427015
        0.9814815305683525 0.9788982584043471 0.9765829673697155 0.9744017866839232 0.9722606884519563 0.9702312979685241
        0.9682160201176058 0.9659540707383192 0.9637595592842187 0.9614683367505615 0.9587890881053754 0.9559931715966484
        0.9533339375742287 0.9507818768187258 0.9482500625179904 0.9456508873698317 0.9432168506473707 0.9412022167276677
        0.939415772254659 0.9377614903426649 0.9361693084100331 0.9345939807568105 0.9331079696693957 0.9315194216128772
        0.9299668714305189 0.9286246429860683 0.9273143247986033 0.9260389803915645 0.9245398737843767 0.9228529393332587
        0.921115054846415 0.9193047067543162 0.9174703143454586 0.9155476571917983 0.9137150698038543 0.9118664822018867
        0.9098370031321128 0.907688389684266 0.9055087128278997 0.9033237385080496 0.9011488559709775 0.899150364129094
        0.897115153909254 0.8950387417909375 0.893058825868964 0.8910467212840033 0.888694215637997 0.8859732959595646
        0.8831551928039426 0.8804805279398997 0.8778377937065327 0.8749642516078071 0.8720249396053651 0.8691228424491715
        0.866248834290926 0.8635492364959511 0.8601605798178364 0.8565155818410969 0.8534972973005835 0.85070133268077
        0.8478046925442543 0.8448085029524947 0.8420140296534846 0.8394553731612244 0.8369062178320951 0.8343392430606973
        0.8314153661379792 0.8283566179335168 0.825491708442703 0.8230696876441191 0.8209398680556587 0.8187027925587265
        0.8161803607253947 0.8131777587068698 0.8099796460712033 0.8067891331580264 0.8034973481529268 0.8002394149403855
        0.7971150409252551 0.7941644017435071 0.7911047443305498 0.7875079468543426 0.7837001111654787 0.780355218834352
        0.7775799447921331 0.7748199362648112 0.7716018919941915 0.7681181676380203 0.7645173654821336 0.7612083422377482
        0.7581687466123982 0.7549150337885411 0.7512038762379996 0.747292608687162 0.743522395766595 0.7394229605720251
        0.7351438372385489 0.731454805165884 0.7283195808319597 0.7250936928713022 0.7214337205616651 0.716963395957282
        0.7120749370816117 0.707345801929652 0.7025099885689257 0.698064688202132 0.6937641034692555 0.6894175954169516
        0.6851742066446674 0.6813484692898326 0.6776940505781582 0.6739094998221431 0.6700438396106099 0.6660250350390721
        0.6622165534931971 0.6587663925011343 0.6550514734456357 0.6511441970335796 0.6471163170888816 0.6429799614708045
        0.6387369288685169 0.6341958107893445 0.6300284963351547 0.626176255730683 0.622358306256897 0.6189375525191058
        0.6155290454041374 0.6118935483719343 0.6083803803933823 0.6052794759308847 0.6024859231679505 0.5997748844987622
        0.5969312598197694 0.5936564111455185 0.590187754832908 0.5870609472190234 0.5841725149030049 0.5811584239332667
        0.5779112121036589 0.5743701475518975 0.5710118030335898 0.5675972102189762 0.5636075391673963 0.5593452924055985
        0.5548111492262979 0.5499237801458204 0.5449192265100212 0.5398641457196544 0.5348360728340408 0.5300720399954385
        0.5257715950920351 0.5215717645606779 0.5175399037734721 0.5130334832754203 0.5082137219765837 0.5038087011919761
        0.4992355678401084 0.49406423278403977 0.4888782700004728 0.4833183685699583 0.4779987829202702 0.47325795445656554
        0.4683682996673175 0.4633739323047591 0.45810996984280944 0.4518813132141811 0.44501098545933004 0.438818564687046
        0.43300633291524016 0.4277051763433382 0.42240300949348847 0.41702692616289366 0.4121687293800648 0.4074875179978327
        0.4031701605154725 0.39888568865311785 0.3937568463361109 0.38790789775516554 0.3816027191891532 0.37486456747384916
        0.36825934409380373 0.3623572176234181 0.3568980339045974 0.3518479082036669 0.3468541463905334 0.3417578581767818
        0.33681081866982476 0.33215308453407427 0.3275441559049012 0.3230402933540803 0.31876159572217194 0.3148323752940757
        0.3111652178891696 0.3078473431016751 0.3050742092719499 0.3023737906292691 0.29974329342414185 0.29716870904593856
        0.294531719779747 0.29167407011623303 0.28856465759181493 0.285134940828284 0.2814583305046251 0.27793953906764746
        0.2745784211884616 0.27121964441878843 0.26811674659106727 0.26513404671356683 0.26210138529904337 0.2593141847148871
        0.2565371430541406 0.25338261319690847 0.25033052099139375 0.24765848816435546 0.2450455123366275 0.24257215478536484
        0.24032549071950846 0.238271523232633 0.23613416631283768 0.23384318985356256 0.23168302470063404 0.22975504200024374
        0.22780577107272934 0.22568101870618132 0.22311301030820208 0.22031300762754558 0.21734787270461625 0.21393249882795057
        0.21006933062564678 0.20605592634828981 0.20208890051959086 0.19822485790977068 0.19458695375893806 0.19126671875137288
        0.18809189473706506 0.18459582256888374 0.18080031027609816 0.1768228483608581 0.1729716978591516 0.16918899203667706
        0.1652625664921322 0.16160072025482564 0.15822991736767644 0.1550165080868134 0.15210571693688177 0.1495408388830656
        0.14714738568147892 0.14483544579082072 0.1424277568063512 0.13952260941515804 0.13637728860302473 0.13304534613162897
        0.12970958131306662 0.1265571820013985 0.12350215043238914 0.1204339650620236 0.1173600273378051 0.11399541709223338
        0.11051909716839141 0.10734203543673196 0.1041749629415375 0.10075568715399365 0.0971482879588725 0.09339158737457852
        0.089602323808459 0.08592963224280101 0.08199426509625661 0.07797392323005889 0.0740819960770692 0.07030997847081567
        0.06660714154843482 0.06283189532100071 0.05938234672362497 0.05634175074280579 0.053486830984918986 0.05043888766717724
        0.04713608851155176 0.04415119304804018 0.04132464706431886 0.03876200205035752 0.0364857377768441 0.03402739458095131
        0.03147161055359474 0.029011492522363836 0.026651673760103998 0.024379292047098742 0.02205913151549339 0.019486395293910358
        0.016783488378205955 0.01379304883327642 0.010666792857147903 0.007602504073874424 0.004438874448148478 0.0014083433140639364
        0.9985545004798411 0.9954423917185221 0.9922843722655051 0.9893094603891888 0.9864895160376652 0.983895799347344
        0.9814062602360151 0.9789036989501001 0.9765578806850407 0.9745338256762265 0.9725619530842421 0.9703481087611835
        0.9682423263076295 0.9662314421213457 0.9642096693357398 0.9620474805036318 0.9591991311115815 0.956253933619728
        0.9535233714671771 0.9508828352955789 0.9483790304907735 0.945832455561479 0.9435725402603361 0.9416093905099784
        0.9397067157860983 0.9379602252481533 0.9363907270429729 0.9348032088490313 0.9332227285868934 0.9315935065996906
        0.930000155199975 0.9286205087040134 0.9273251306760005 0.92608091218897 0.9246285159354268 0.922969707495794
        0.9212897006348293 0.9196021036176367 0.9177384318339161 0.9157816281058655 0.9139384345879588 0.9120465603446801
        0.9099922480880386 0.9077704845406244 0.9056176007203209 0.9035884751041765 0.9013604979702151 0.8990329092808043
        0.8968280308095435 0.894805694824347 0.8928079683211622 0.8906062594662709 0.8881327321501651 0.8853298961882726
        0.8823782893100056 0.8798805291338345 0.877501386394337 0.8748865621268097 0.8721113360684577 0.8691599334123964
        0.8661121268713005 0.8631767001600897 0.8598899080752671 0.8565498645776362 0.8535696810706941 0.850757688493441
        0.8477925838294783 0.8447237441629896 0.8420972495493002 0.8396935083291479 0.8372139571839091 0.8347186997566072
        0.8316673247629358 0.8283931588522467 0.825508448187924 0.8231608028520236 0.8210510612755114 0.8187529926718827
        0.8161314465007798 0.81307907364455 0.8097321282025687 0.8062386528249013 0.8029137338011126 0.7996112625077993
        0.7963672907126765 0.793445010809697 0.7906558810345468 0.787661999877705 0.7841887349355955 0.780847183267747
        0.7777455355563576 0.7747070703633248 0.771547217193515 0.7680397530101688 0.7641550079143147 0.7606811773436222
        0.7574700310645403 0.7538950309532392 0.7499307347395012 0.7461054690452845 0.7427735301478277 0.7392868949764001
        0.7350929851767541 0.7311524100993838 0.7278620675491858 0.7243138829759082 0.7205833280593972 0.7163852890089204
        0.7116068785846116 0.7065208585794369 0.7017876668976244 0.6976668540523409 0.6935991676411625 0.6895963136816522
        0.6853023284098245 0.6808893395718233 0.676663828758989 0.6729081698086944 0.6695010583931125 0.6657488075007919
        0.6618662818197688 0.6581899680537947 0.6545725316359023 0.6508699993493684 0.6466580615066888 0.6422310224770427
        0.6377197592206815 0.633435567226138 0.6296643908552936 0.6258222709120053 0.622228419893922 0.6190890922843304
        0.6156598871683427 0.6118716964537371 0.6084702299893512 0.6054613324465606 0.6027203953123386 0.6001136814976936
        0.5971395175745761 0.5939177940027668 0.5905801967241741 0.5875286778669132 0.5847390307888714 0.5815570540713075
        0.5780330996624866 0.574365852063707 0.5708163188875969 0.5672541014373993 0.563186963777558 0.5589834559732423
        0.5548954146048021 0.5506393439067166 0.5459504782757318 0.5408127448979371 0.5359349448015912 0.5313730048459061
        0.5267669900097172 0.5224739768737452 0.5186544200602492 0.5145989211902234 0.5100109156805053 0.5050587974134717
        0.5001875763610149 0.49499664538044547 0.48955369485000566 0.4840547455354182 0.4784127907899687 0.4730989911008662
        0.4679838858642833 0.4629717258153701 0.4577632001754435 0.4523315945483658 0.4460879381358019 0.4395720071531514
        0.4337915426465995 0.42870381534860535 0.42355410643726626 0.41808475254291066 0.41282175802777116 0.40785984785941914
        0.4029256376199171 0.39796339594989577 0.392789118189612 0.387490852478972 0.381439302854976 0.37450957201177143
        0.3679176657085826 0.3619590048473627 0.35642071427635225 0.35167726154314183 0.34678381137857556 0.3418187127329479
        0.3372243574205231 0.3327556893750093 0.32812128223371156 0.3234705863252682 0.3192719830505857 0.3153683265521412
        0.3116943687921121 0.3083984013495791 0.3054005681758652 0.3024203628660323 0.2996626381197268 0.29695713878576585
        0.29414897295178155 0.2912846285478295 0.28815499112493553 0.2847428034503783 0.2813491602226284 0.2781211268364899
        0.2749739546152709 0.2716687957802454 0.2683504265435235 0.26511595385829295 0.2620442388085874 0.25914405966026044
        0.25621198218776936 0.25311816391985065 0.25011127597406296 0.24753003455328365 0.24497709828026537 0.24252746595614255
        0.24029228705973707 0.2381047875678575 0.23593885853930904 0.23389644239126134 0.23180112203141637 0.22964732999753315
        0.22758290341398743 0.22527785874591688 0.22269279635003306 0.22013664587910284 0.21731419495056065 0.2138845670624819