<?xml version="1.0"?>
<VTKFile type="ImageData" version="0.1" byte_order="LittleEndian" header_type="UInt32" compressor="vtkZLibDataCompressor">
  <ImageData WholeExtent="0 300 0 100 0 0" Origin="0 0 0" Spacing="0.01 0.01 1" Direction="1 0 0 0 1 0 0 0 1">
  <Piece Extent="0 300 0 100 0 0">
    <PointData>
    </PointData>
    <CellData Scalars="K">
      <DataArray type="Float64" Name="K" format="ascii" RangeMin="0.05351666058700022" RangeMax="18.71384722067781">
        1.9032124928461267 1.5747014461005489 1.2840964761828617 1.6355131465314743 1.5347345119286442 1.4598983342245009
        1.4890610193857672 1.4889958989274543 1.5871249922586876 1.402383043930905 1.9624052528241507 1.4783424126462092
        1.1841924627023794 1.0670959324100817 1.0108280957306954 0.8927901108990787 0.7769350987290904 0.689171705262536
        1.0409663518465788 1.490094614840828 1.6831139573438036 1.8656667890174796 2.5799395835375996 4.284476955956582
        6.718090512890859 5.77088009636434 5.167860273350146 5.246245731675611 6.069080233834749 6.775822670240369
        5.991719379508404 7.016511025139557 6.853386025327588 5.60269205007551 5.7946395297461715 4.656470985262514
        3.223290017716688 2.8350272584956118 3.2837023811685047 3.863841935144999 3.5273556307825853 2.6558023438640572
        3.0768241144351984 3.6042132638738917 3.746838711095783 3.635508520888714 3.2355569997731797 4.473411028889912
        4.724307368697606 4.030076067729134 3.811628811654881 2.909869900940661 2.0034666371937866 1.5206243943175168
        1.3838295800519647 1.3224590452357805 2.0034087882256353 1.9484687433685615 3.141722938603133 3.1862383858381107
        2.0122982371118385 1.7267147206332398 1.478094509071548 1.6117277231767697 1.4933332757928581 1.2927168390093853
        1.0609323169139444 0.7690299050891818 0.5104152911546072 0.7254460104991998 0.8177318532581195 0.9418668033130175
        1.093472975351162 1.2142714059695172 1.9129197040797694 1.9063018595883743 1.851138457492537 2.0860202608227727
        2.096035192947117 2.1371060024968602 1.5351232543438629 1.0414946263218423 1.2095162725283022 1.1486234138523146
        0.9900465936412169 0.6829369897671291 1.058564642293236 1.3377488861051143 1.756753265702477 1.321693602014362
        1.083248482293294 1.1178871017028906 1.8041847306596346 2.2458751815564155 2.773413677435106 2.5718204859586753
        2.6435272922896726 2.1271881779027124 2.706041948662459 1.7946508273863702 1.3197294960797568 1.4506162546712955
        1.658226991693054 2.0218056579936268 2.4700531089785738 2.114787171796927 1.8959827109812804 1.1194269149292497
        1.006261549796085 1.0226736574776343 0.99764267937426 0.7282060615987316 0.8436415411106806 0.8847403591820044
        1.0273568482977415 1.4547676402486505 0.8434458282560044 0.8704813762086152 0.7816131545329604 0.8827658774060491
        0.9846655501668451 0.9452063339237999 0.9101303219795913 0.5752746773615703 0.6072472577779368 0.8621678809462837
        0.9796695510168133 0.8859694310911443 0.8109623782326372 0.6797696345145173 0.6894721898379228 0.4772609868854004
        0.6298561350465954 0.8147043192663064 0.7180517192151455 0.687720114789523 0.7439387517418506 0.7588242966017776
        0.7071569608111303 0.7454223119854306 0.5397467795791792 0.8195453921390238 1.0879352120232737 0.9380497280361565
        0.8784981798804112 0.9560658644982621 0.6009717601812845 0.49800235924900765 0.5105513641327508 0.4794285282392884
        0.517023592635897 0.5313203136903281 0.7138579831373574 0.7662949277383891 0.8123681789359913 1.0165428174860593
        1.2867789644427055 1.4615515784367075 1.3177411275220863 1.7718562248039866 1.8338248936768007 2.303261770882262
        2.0543543953823384 1.6645604534250813 1.4962872641512732 1.510448836110576 2.1081403862695267 2.4223084662551617
        1.6900615743166298 1.2797784727535653 0.9268665524951991 1.0144587206589148 0.9037507003363956 1.204413749064315
        1.5714031223753706 2.5985202807761154 3.077147468745305 2.6419565118684387 1.7840562075944628 2.0482442903647224
        2.045339249428181 1.8861806057137136 2.1425378420563654 2.011250380748977 1.3256285945701538 1.7047690945475704
        1.7346793151295226 1.3279718854468423 1.2736349740014015 1.5536698782320915 1.4613922844527583 1.2872782960778704
        0.9810642718212819 0.8844064282024294 0.9704962607292938 1.1727477507720792 1.6194686907785465 2.276043360122757
        3.440546036211457 4.881304871060788 4.328587531814993 4.200709286659715 3.587605915121246 3.288164627702528
        3.6693550632540815 3.218205682562388 3.0851402969281665 4.952611499904282 3.4992844595407577 3.075689773228096
        2.8624131190186928 2.0969280500991876 1.9343151468186823 2.274067437588724 2.998166612059669 2.722540222842938
        2.9706299383026904 3.1016475047932417 3.0519442833157244 3.7029207528847374 3.342020972347046 2.871874594467333
        3.2057772676872442 3.874374383972334 3.500227604075558 3.516118972966199 3.0475089624420972 2.569448746629998
        3.119859128558257 3.3347989825757645 3.503025051310255 2.9475945466819127 3.1112751640568974 2.846648330572905
        1.651782471161389 1.2885830140364756 1.6641243269455162 1.24118272241888 1.0240989422816327 0.8876477157282201
        1.0040197356330158 0.8044263115885796 0.5400840171351781 0.6586397412997459 0.9141009637871523 1.2786497325348105
        1.7065070560653097 2.017471942797667 2.289952754244477 2.7634644463074456 2.464321933471249 2.4198564246876426
        2.5254883539134054 2.8196971405827136 2.698916482003557 2.4354414388949333 2.7540483388629573 2.4789973386890125
        1.794470178620344 2.0395865100865835 2.507692553858378 2.929358599263401 2.731479844086141 1.9739563930164443
        1.7292737723432976 1.469043549288124 1.2609200313331557 1.0936704555747547 1.024822516248133 0.7629848172966546
        0.8990612637209601 0.8595340142221392 0.6503771411967355 0.8402573170018709 1.5851351460785166 1.1223212764805754
        1.333758286175966 1.4284420013282517 0.9552252401269222 0.7322901613144162 0.7934025664241422 0.6719799849862994
        0.5444394881547238 0.8539925348818898 1.0418238115694067 1.3848027116170458 1.5500770545231841 1.351717287584769
        1.5259285713158528 1.4445706242420335 1.5522419991915544 1.7745990265604557 1.6223641057424232 1.020331944027286
        0.7845530017646241 0.6265729197017632 0.6761009786908766 0.7615707430277 0.7793559405546262 0.9905203266480904
        1.5581207452277837 1.421384152378464 1.91916605248035 2.14617419301934 2.344692163886493 2.072830940048474
        2.35246234956365 1.433919216446116 1.277198441728161 1.1602561514118235 1.1445521069315039 1.484909107494449
        1.5566818174998145 1.412171098330482 1.6841457175773016 1.4715461025645078 1.3521203635166301 1.1181685337810494
        1.1685851958246476 1.102817458874694 1.2239897616084143 1.5424795505831603 1.6394901377157312 2.6666859576670876
        3.3965809433201173 3.5517711376646104 3.8567780408649006 2.965387625393354 3.672987309589441 3.233685936912517
        3.6985150275936753 5.917347867496336 5.667935858087319 4.854209476322282 3.9266611911398583 2.675300494259388
        2.8948400285991167 2.5843755771982018 1.969497732244133 2.0775800598098173 2.3817822153101855 2.3972534225240225
        2.9601963859569644 3.620137229995609 4.501882782473512 4.44535254630303 4.280096118473257 4.335355733321565
        4.928645993980745 5.026953651717063 7.174748453804402 5.64329985830931 5.133626058533951 3.667052132618026
        3.452443359841127 3.4171448847537196 2.0047839911719927 2.286910923915794 2.1543849087769047 2.509105170366776
        1.607067044585586 1.3640169963452309 1.1945606749965407 1.4807076310685994 1.5451620092873117 1.4222770945960137
        1.1833617513456265 1.0332509857670107 1.1446967329525137 1.4581036966096055 1.9945451811870263 2.3925375949933763
        2.2590103339703527 2.768713989390773 2.842136860764216 3.5812846071994002 3.5073971023171566 4.00104999793078
        3.3911629968331205 3.4326883634136074 2.880582324307637 2.762487180712325 2.253193059975037 1.7602424938742192
        1.7095389253557067 1.4080185275705457 1.5798697744770909 1.4220090913794297 1.4255620847938621 1.7375462196039761
        1.5749491155256294 1.5324262221735556 1.69901465859631 2.5171416404014435 2.0403954428723634 2.2177921167793797
        1.7234861446494465 1.4852618574631122 1.3698615611329605 1.1089847064508729 1.0117329408537667 1.245415888414114
        1.1390985575735582 0.9795665664667498 1.0883178293321354 1.383478027515054 1.3534427221595546 1.0711685598700151
        0.9442555621532215 0.9120219955386321 1.2229348377708653 0.889136205860723 0.9708378158687291 0.9342047219730116
        1.0080368550886987 0.9531003873885908 0.9615207435134332 0.8473142519006532 1.137306377444813 0.7872689101974327
        0.7231100750340256 0.9371311816622315 0.9240937842073127 0.9618051893079167 0.7918752690525832 0.7248196889003519
        0.5814010985616258 0.5808884769398539 0.619934410684647 0.5232418039461882 0.4027038978636699 0.5235738286521122
        0.5775981167897909 0.636945093196999 0.8252055052252795 0.6129836668991644 0.566147580772677 0.6615384053811215
        0.8305137349352276 0.8985976067703473 1.1260721270609193 1.4778152752352247 1.1905228273460309 1.467495253330027
        0.9661002983266005 0.752718585045019 0.8123535089761056 0.6702036581960091 0.622865436191852 0.6306214576597433
        0.5534570760043142 0.5031606796986711 0.5160858901111351 0.5560395610308599 0.7598162676066987 0.7142523639831373
        0.6851651958545063 0.7549839099949436 1.082862325049551 1.1064067558397628 1.478192988784108 1.275463275246502
        1.074899976486111 1.2251796139131619 1.3197759255579438 1.5208293985521506 1.4506167757958182 1.3563584443949475
        1.392650441028799 1.0512501540887136 1.2098748864938782 0.9681150700052603 0.7199325330688392 0.7181396645420134
        0.7136308837747809 0.8093231439174496 0.8677539073832902 1.5098819405945485 1.7507935562303534 1.7939207151880991
        2.0417970402419447 1.8916422451618047 1.6906148347928198 1.235784363159059 1.2409193463983041 1.0615208481022609
        0.8722130627534613 0.6115081355641958 0.9839854423642536 1.1017599382318726 1.2094373377304888 1.405118348508511
        1.2614198920837394 1.4350898030607515 1.636684369044222 1.623747474102868 1.5418767423031359 2.278014599893755
        2.698076985274443 3.0679750759062934 3.176983131783678 3.90170725625852 4.110935840753155 4.958637736956308
        3.7740484536909755 3.4622554953723172 3.787655725495113 2.8360270375527947 3.4032474492724947 2.7016744909069734
        2.4730686720438335 2.714605399212418 2.938316751769582 2.344903031933447 3.2944020982388236 4.110004791177723
        3.8157231973640373 4.000946573283504 2.7059724023745115 2.5338762887450947 2.485028411629929 2.7912650231281466
        2.7689909731857973 3.138428508031358 3.672994148714835 3.7592500578594494 3.572129706026327 3.181625042401701
        4.716258576546627 3.3689338046127384 3.4473163390464077 4.45562082134652 4.139452665042569 2.9590883942566535
        2.02880317489088 2.107103072794404 1.5490346764643275 1.7089188705155305 2.0269380370175 2.4199490138673867
        2.010985358783377 1.8105207003190107 1.8341277813729413 1.2895095938155865 1.4174402863670144 1.8392159810342252
        1.5919993792010703 1.196524819604396 1.5802551011493235 1.452951922755066 1.5436615065707262 1.9670345129792604
        1.8031394632513758 1.497852118598682 1.109253003114983 1.2093888268378312 1.39513823505485 2.1798656992911325
        2.345314475813287 2.0860844237843326 1.7894504499218566 1.9206670941963864 1.8999677780851767 2.178540381068259
        2.121340848600602 2.5831237365019044 2.140550908086345 1.585964246456687 1.4293171030296665 1.2383764726546027
        0.7417547014654258 1.0803481254471257 1.2426129849288263 1.8595752413504558 1.5019367240892199 1.523866232466083
        2.2912937473884565 1.2399638692263752 1.0939867143491342 1.1697584166218633 1.256792408793528 1.2632823287865311
        1.7860948047011054 1.6689402578424406 1.9865842820147723 1.5696854711554773 1.101523176392489 1.2408747616472362
        1.2663757739173207 1.1815857278393902 0.9635672664035664 1.0085563653037097 0.8794082090064756 0.9880901928951118
        0.8909023471145585 0.9632869256715304 0.9514975565604377 1.0342810285395792 1.0179555325221548 0.9446164694502526
        0.6497966589464867 0.6560963770750728 0.7682655848817834 0.7224872685812453 0.6092390713246755 0.5825242121875995
        0.9905758837712464 0.847555061127555 1.0779760874622872 1.2667176202962767 1.5000619281428382 1.5539389234298566
        1.3957389338856017 1.0790261843420552 1.872395510066374 1.5903476184292828 1.6106412085107578 2.631232882743969
        2.170038478468318 1.6070423987637108 1.532483874618457 1.6245225414306477 2.0249589914403345 1.973254335149694
        2.0106091729771207 1.7737806884836482 1.7931525826242687 1.914635796290537 1.5356986067916503 2.5268727433804514
        2.816871205592235 3.141814155779912 4.0068842819837105 4.5719196182661515 3.4965752594501356 4.155990830503698
        3.364490509326817 2.288447587341455 3.2618709653787104 3.5720132962622704 4.587483074197152 3.9208263831149996
        4.02033390876555 3.3578880043585273 3.276558243818048 5.033585280428725 6.390063656294986 5.500974831387509
        5.29925557901125 4.695293102859863 3.7078535326732815 3.284850017846463 3.272883670505581 3.1312526377232994
        3.571147817407915 3.0406156421615105 2.037441550832945 1.4918191028939514 1.8812359639945557 2.0603968731590148
        1.7143444583260616 1.563982895351105 1.4555001429535215 1.5923842165014621 1.392437736157425 1.423901847265788
        1.609906366319779 1.940423816974582 1.747979046268692 1.7215315421679984 2.5668241299688925 2.5111163760722897
        2.530893014221715 3.0342199639919194 3.0847586222460546 3.597657115449144 3.250299745380073 2.2950963346110065
        2.9034776164650657 2.4836341225924308 3.2556736978878695 2.335716204529245 2.284014755934596 1.832089541036621
        2.154423335907079 2.151363828898331 1.4333648609266267 1.6856314151679004 1.5155296611310418 1.9575041310582524
        2.3032135214313687 2.194466765813895 1.9635030649660155 1.597506294409544 1.5046500948578994 1.2756081475585201
        1.6093031580914967 1.1754581115989977 0.89618924727811 0.9352449472248224 0.9700967537662712 0.7586275501439023
        0.6756979005698804 0.56143029180457 0.6112819477344243 0.521818492954571 0.5379390303290568 0.45705816092861007
        0.36486349046363004 0.455225700873833 0.4356093455107809 0.49615672728983395 0.40717732083292657 0.505812188290163
        0.8518467099815846 1.1430107612644322 1.2567577907086962 1.1647618596619667 0.6307909263310624 0.6145591296573245
        0.7215407128722491 0.99509936137667 0.6729443052861022 0.7357109896437887 0.7707304205044736 0.570610111964951
        0.7187543095725815 0.7194037129950519 0.7680107784590126 0.7963733196362175 0.7697319865058841 0.670494795355192
        0.8283288995653032 0.7100620440595953 0.8004519457882635 0.7981334680983673 0.8021698856351245 0.8879143298577205
        0.7897003625397039 0.7811024635987758 1.1061373397605472 1.1287559849264963 0.9339563008054026 1.056357647585416
        1.2826965814427602 1.0224897303027551 0.8249434019370933 0.6571801369937383 0.5255073757310867 0.4271999521566372
        0.41617233702438916 0.5378878527278632 0.6342123226856754 0.5102119802286582 0.4679181495944969 0.7296377278733177
        0.9059346359648903 0.7946054304114347 0.714441439534831 1.1243120778412472 1.143587021490495 1.2128034120992934
        1.1044899110073343 1.5545390811121722 1.3077189252105819 1.4168882550119304 1.0770219250086999 1.3147140939915996
        1.311100703730837 1.038532464532686 1.2730898213104418 1.0748996395411416 0.8619820887325212 1.184438845756436
        1.6548202808856662 1.811767154975695 1.4895433089296042 2.0809773747583025 2.8268751656976256 2.086145706416658
        2.3063256596842994 2.039931511124619 1.484110036249391 1.4186295086679146 1.4666547543560449 1.3075253644284557
        1.2792764738010298 1.5814998703510306 1.684667559732596 1.5637274572507383 1.7556523125892798 1.8250402216863406
        1.5044989668838549 1.9882461590193996 2.3186200601746667 2.061211159827254 2.24448062031296 2.7969279719877953
        3.1707579574087705 3.72006447320381 4.765871873175121 4.669352162625437 4.170567692706772 2.6793977816574626
        2.6798095115281546 2.5439828484560976 1.8598661928117963 1.79981055144533 1.7982815812780357 2.0329396137567217
        1.6795469335794446 2.1089175733698866 2.3765208405467475 2.10381223999066 2.336682177332583 3.0222377219554586
        3.133671409323155 3.0080478076822716 3.2428725682569093 3.826311603397413 4.322639115359996 3.9292159195686693
        4.283910684960875 4.302839958895603 3.7062994353627636 4.22296301814312 3.120224937384294 4.086555285222895
        3.2148363149446433 2.0871762315921925 1.8833370442100499 1.999905602381226 2.0014246815101115 1.7706947893480418
        1.706340477292678 1.687737675276501 1.4455104308845341 1.3072414643455985 1.6127018898000178 1.554353904662314
        1.4777569130327015 1.5700828096809163 1.7945820170775033 1.9487993668517904 2.251318401229092 2.0036886574849886
        1.2203685931221782 1.2696809005586178 2.062526827011787 2.2784785766233084 2.8967299736854994 3.231591339824349
        2.9919437709728145 3.4302932227091083 3.1457844588360246 2.344801876448417 2.5521100055332586 1.457084740374728
        1.3998995121216244 1.4245388501614178 1.4957922398171897 1.5046718086614672 1.8833602910975764 1.7618169570886981
        1.335827117315583 1.2011783450013958 1.1375259935454745 1.1383790695455103 1.442827629065854 1.3643179369869156
        1.301046515979293 1.0266411496402938 1.588917657044442 1.1691937297531114 0.8890543485973118 0.9565473638781798
        1.012673448146899 1.0984529470679723 1.2246433294434984 1.218824055821501 1.1744536006529929 1.2471389202078087
        0.937255258301796 1.1474558476231673 1.2897206754774417 2.384741892513481 1.8615456702844697 1.5947965704463167
        1.398340968340506 1.1686579542288056 1.5290305748735769 1.2326547547911546 1.235726624747498 1.687374973837069
        1.553813608829703 1.2664820033086368 1.1504972827597537 1.1306738394142888 1.4621057665590582 1.2771958720549452
        0.6552100472961823 0.6044142110334808 0.5085765211627356 0.3830563017472024 0.5088248492074398 0.5634954171370278
        0.5667907382700486 0.8680532717716646 1.118225115904449 1.2322400968332257 1.5318640234644194 2.0456025362978583
        1.8360253503345418 1.7116918240319656 2.385195329377726 1.915337330020176 2.1249673376448595 1.7137678786384158
        2.31131629495791 2.091714979498174 2.3263293737823334 1.711732814513842 2.1433390202778067 2.508588605580997
        2.9860166613874153 3.1729202885703307 3.563114098587393 3.8624615938073803 4.784944934159866 3.417874157662082
        4.212057447193025 4.1113036366602635 3.7082778465209856 4.019580386678676 3.0113141751994457 3.9486597349945507
        4.008044939475122 5.8197343754900075 5.4015906392180835 5.631502433388332 6.113336781036383 5.391891465903673
        4.599078020851607 4.081382448760378 3.589075502859208 2.9492469407468938 2.6101116197145675 3.2852022621651082
        2.29103308853891 2.76009012056879 2.8199268121228296 2.9481737479865777 1.9026310484874995 1.7607953826942508
        1.6559727071124022 1.9190055643592538 2.003903103565885 1.8858762183310913 2.098349667281379 2.285477587313242
        2.9177534028902725 3.133889529633027 1.7121083531818926 2.455847755142218 3.3077060977202923 3.68145083573297
        3.5732083904854854 3.5687148207444093 4.1227298805520505 4.5290191704217015 4.148196108757342 4.0166337702817705
        3.0668919688269067 3.067317184099725 2.8433161228170656 4.134311906864608 3.80023324084128 4.004766828393859
        2.7809025216888656 2.1990191200126588 2.2572963376945077 2.5226513601954337 2.345374089426307 2.8075558472932163
        2.453593577989664 2.3838909642921573 1.5549439366843703 1.0577252150139422 1.3053850487071037 1.9052789325432065
        2.5002946603334952 1.7865869441868223 1.2223177979536146 1.0704947838896328 0.9542142492157284 1.2093038520610153
        0.9855931047785434 0.9374952018522319 0.6620119805457897 0.6342182116940394 0.5142404443271066 0.47242056479803324
        0.663351577870013 1.0015389165024307 0.9890951822650098 0.8265202983356056 0.5633700471445465 0.4076293334736407
        0.4997737546252123 0.4769480741329553 0.44462015473885824 0.5654136899701748 0.521267334393721 0.5587009337036307
        0.5132501411653626 0.6015628997342111 0.46964409180086675 0.46579444792198865 0.4985922779569874 0.5135074495562492
        0.6307350184252776 0.5708547558037951 0.46049285072611157 0.47910124385984715 0.4341498086302956 0.4861096943255396
        0.3790259305107715 0.3240539560768642 0.4623412185198198 0.49045409544785196 0.6241959262653769 0.8466236347169982
        0.7330171784998126 0.7494306620642041 0.806386373789116 1.1751511600847824 1.1933039150951164 1.4150540012285888
        1.1051332987911622 0.8850289589570903 0.7719061266852123 0.9973766145497239 1.0828769790535577 1.153229505279407
        1.0045372349106378 1.1343509516152652 1.554033989933361 1.2797517946157597 1.1069786740704295 0.9954345531313968
        0.7831804529585669 0.702808725218456 0.7381908305734137 0.8187486549646769 0.9069408707761104 1.1308058138664987
        1.3300933057126034 1.2231435092635194 1.6098222633819719 1.0408065765535783 1.3141964896074363 1.546530653903599
        1.2691283089492624 1.1525653281722172 1.2333940811754343 1.0965828626324887 1.880177339964341 1.6889957416959258
        1.8105980657337002 1.657512872503727 1.478860216714832 1.0075407713306823 1.448912391162387 1.593484289296386
        1.5591734625814155 1.79717260682923 1.6827834209351875 1.916698887596081 2.0668642337455605 2.2981857613153203
        2.9164208965526903 2.253075447400264 1.5998446801203179 1.325706157892644 1.2800928162064076 1.2921577568667064
        1.5563639207321132 1.8169261848600935 1.8027505126507148 2.006674556460377 1.7875290851008567 1.8739050329145652
        2.1422128419918804 2.5482484439068758 2.3591732999977135 2.8604355339817347 2.653214380068897 3.24734823619062
        2.5843122367098386 3.752254576673587 3.8758878764437927 4.015816555998209 4.420960903728033 4.875682199618404
        4.119892409554263 3.242808455168267 2.673531318165733 2.072371103883729 1.8572579006933527 2.597648862052999
        3.0067117071860205 3.910226468593781 4.867611506246933 4.99626475848196 4.497730519003745 5.041455849551804
        3.451248483370197 2.703543690430932 3.264814117714858 3.347670503653408 3.2805962852614337 4.192317863024119
        4.473813616688603 5.429758519038539 3.6684872170880256 3.826637659173318 5.2442161588828125 5.960275508761824
        4.675999695075903 4.042552557052005 2.274928118346518 1.9957430027421064 1.6101774391392114 1.6062452430393341
        1.6163876300919648 1.882390673546965 1.979485841468003 2.229300769707779 2.065339043285658 2.3036568084715148
        2.053966021378046 1.5663057103099387 1.3037941111714113 1.1223987415831838 1.0753534987630398 0.8291052407323907
        0.9491356099049687 1.3316859242243038 1.2383327345072346 1.371276020248356 1.7605718482450377 2.079646246657027
        2.2744173543661708 2.3455489928300466 1.8860249825388993 1.2567724229023922 1.2845168640605829 1.0941595999041074
        1.2343187801293087 1.2037773911495384 1.1804011213955758 0.9647336635531257 0.8628061493035702 0.6636811307928381
        0.9931599170347528 1.377735424115545 1.4437789041709344 1.3827144949667338 1.2714358579951213 1.229803206317504
        1.3769724740250213 1.4282134250046823 0.9749719462013379 1.0758277525405937 1.0688147489858622 1.0356830168182947
        1.010941963120282 1.2650937838229104 1.966195886680126 2.33714789858159 2.7764021969024197 2.1023267106725103
        2.2320719332004915 2.6069402581548493 2.2559199241261982 2.626933508932999 2.198787514709654 1.6205122039542041
        1.4942608273997404 1.6332330618649018 1.786673549534718 2.414169792189538 2.106387367106864 1.8389869333301518
        1.8078873457286335 1.5932059873845394 1.7092446694922454 1.6547699331120627 1.571624093247195 1.8959298960752817
        0.76164450498992 0.6227304176240251 0.7342521066876575 0.7516837547183588 0.8314393109771387 1.0940782758833907
        1.1904644762972343 1.300770584153295 1.6955171848940949 2.1978182986230257 1.9012420343424408 1.6206921175528592
        2.469965724601527 2.3288321630836992 2.5236656718451096 1.6412634340568162 1.0897755281103025 1.495861511726639
        1.412525908391747 1.797859557312434 1.8895171011571932 1.9183436941540286 2.7545478690699876 2.543951603557968
        3.044817137283982 3.658182743289008 4.173750105602033 3.629653436379092 4.531365253823567 3.5707899328702077
        4.9909997471352465 5.0738337119372 6.376753560864766 5.916350740044645 4.599140553781678 4.443308457637879
        4.894784827641595 4.367599709454896 3.1691939266357942 3.4375439926653075 2.995829239819054 2.475098556383212
        2.2739840276530603 1.9090647628311066 2.375758629600913 1.9970846055657994 1.404391086401321 1.3259588663560793
        1.7916537818006453 2.1203809501880375 2.2607221534581674 1.9597240647380774 2.1488200970693447 1.651955705304544
        2.1475556581947823 3.1108216116205716 3.175384186721581 3.0471450205018833 2.8332038329061726 2.61083502925158
        2.5503258484452185 2.9077779238515045 2.4258964616722465 3.3099599184507342 3.7140204789738136 4.170377235055739
        3.3990017574353875 3.839834949259952 5.146369960331659 4.599024807827858 4.989927215047645 4.381812487846329
        2.864974115814715 3.4509539028101712 3.9734689794133002 5.791145849282891 4.363058374585363 3.78327203181147
        2.6570433166349376 1.8914012907985707 1.4363365985768135 1.458155604787516 1.860373815404241 1.694182806229612
        2.383321056516579 2.901613708891303 3.758205207387503 2.8383452548204335 2.179916895815855 2.1475688303216516
        1.7865476700459602 1.7533035118966234 1.5317700446584426 1.2435329606271857 1.0282785602883506 1.3040498085015744
        0.9849336375232446 0.8314823519867968 0.7465970876338818 1.0381428307385505 1.3175883052679467 1.086057049178293
        0.8208215348657535 1.0461144281652508 0.9688896723660023 0.6976903340966096 0.736058634222827 0.5287180657257868
        0.4399156288121825 0.38092914272380535 0.5434117410455679 0.5466723735184569 0.5225469537706927 0.4371755458095523
        0.32960064442278825 0.30209478629381403 0.33198117614015205 0.4823696792193054 0.4932580213470126 0.39268164107644016
        0.369157453043197 0.3341709236680373 0.34614125336754337 0.28652564627081223 0.20128287987022428 0.20185784897201625
        0.22401425170302844 0.33445538987371876 0.41844977190842375 0.40705193761443803 0.5977504735298728 0.5650630577567343
        0.479831939677083 0.4937462374670661 0.7958115006178579 0.7578544593813332 1.2827458113034853 0.9523329003549152
        0.8880971914025221 0.7904705770510345 0.7898931779391031 0.9172714371730671 0.7932258118000101 0.49076987474580636
        0.48401303781004323 0.4944551278685321 0.6194384376532508 0.614522912193873 0.6291795194362577 0.8758666633839995
        1.1128246143155982 1.156948761478905 1.0832441084370303 1.1051602990450156 1.2467536507654229 1.1921611909887608
        1.0541338967939557 1.5672784310828358 1.4310475114024996 1.1389315195000114 0.8856847316773204 0.7187764992026384
        0.9123750037692686 0.745094832365173 0.9645320950849734 0.8738609376449837 1.002593035601704 1.0692789195456693
        1.4028063425161867 1.5485889997058262 1.637885393880286 1.6324165041553609 1.1568717350863347 1.2749447653826524
        1.6020442150887109 1.596306419871278 1.310582587869297 1.0850617407748848 1.0569407653920704 1.0407343003948184
        1.1011294362518629 1.2671981665337135 1.3784681352339951 1.5556502988123062 1.2157237818025068 1.2596039461168174
        1.6653148382817535 1.6895844929837613 1.8310097267983463 2.157951585588401 1.5440458799248065 2.108560144868967
        2.2554164401836356 2.11473242424037 1.664481358557243 1.7313063595807294 1.9638209502145172 1.704892651756338
        1.8196131068325878 2.278941395493315 2.114369174783213 2.6910961032201226 3.3272570096244434 3.81996710479431
        4.210687644931702 4.876667182630519 4.050715729454165 3.9987110525784026 3.5523537375936955 3.641658363196526
        3.338861618717848 3.0565448399011053 3.001481109268057 2.9353884975799196 3.5359501299902982 3.4312907205345367
        3.5432779304838546 3.5372211666119147 4.655921723892416 6.263879200885158 5.575828930036676 7.339282525183786
        5.979889010443192 5.561343881115911 5.213096674432701 5.69737412002456 4.037457630789503 4.172465223956877
        4.303985858222589 2.8721741420193827 2.54043328179898 2.48790318048546 1.6450041047113342 1.2423751443987812
        0.8866546099930913 1.2652335404824475 1.462642805002446 1.552462661049757 2.0917222330450977 2.431953606416555
        1.8815629421873352 1.6341013711162282 1.4755424758306097 1.179432805149575 1.4000950548778797 1.6855502620843439
        1.7231423240846608 1.3112442876471886 1.3953811056802992 1.4372348472416405 1.3479025734364847 1.6311211033670168
        1.7348234621149285 1.2773008338189096 1.1070021494229954 1.257842626958193 0.8252202397026206 1.081171739643468
        0.8888652135191789 0.8761170457019447 0.6958006176705616 0.7825484776100214 0.5663382047340875 0.7591326019705105
        0.6846809599186789 0.5876159937603336 0.6334744663364351 0.7270664151982831 0.8686477420416092 1.005859428546911
        1.0800905615174476 1.0166053118311429 1.1731919318009496 1.009447657827155 1.2336792273765316 1.5371256623099903