<?xml version="1.0"?>
<VTKFile type="ImageData" version="0.1" byte_order="LittleEndian" header_type="UInt32" compressor="vtkZLibDataCompressor">
  <ImageData WholeExtent="0 300 0 100 0 0" Origin="0 0 0" Spacing="0.01 0.01 1" Direction="1 0 0 0 1 0 0 0 1">
  <Piece Extent="0 300 0 100 0 0">
    <PointData>
    </PointData>
    <CellData Scalars="K_normal_score">
      <DataArray type="Float64" Name="K_normal_score" format="ascii" RangeMin="-2.927762260717965" RangeMax="2.9292637429151815">
        0.6435432441118676 0.45406569627780446 0.25005533965917703 0.4919566061978528 0.4283574096822004 0.37836679920287153
        0.398145732973538 0.39810199945191 0.461924198530249 0.33817296380087064 0.6741708906932475 0.3909214686616374
        0.16906107620960406 0.06494087681611944 0.010769891684488955 -0.11340376391836349 -0.25239846012233763 -0.37226482963638996
        0.04014946619648585 0.39883961783450816 0.5206456237564432 0.6236185168213213 0.9477659814258498 1.4549984806452092
        1.9048039642894037 1.7528245985877287 1.6424587292243458 1.6575127220700236 1.803207067038987 1.9133607867358136
        1.7903784125929416 1.948266089523939 1.9247428404098605 1.72324720545848 1.7569332711893717 1.5382578619416967
        1.1704025825630637 1.0420515521231255 1.1889715605553308 1.3516620084599835 1.260548477127035 0.9767468101190946
        1.1238979333266048 1.2821035122112079 1.3209124740747897 1.2907489969062769 1.1742010923506352 1.498151211328896
        1.5527209615651147 1.3937852511474849 1.3380566074031115 1.0681083726034586 0.694878998693763 0.41912103624403224
        0.3248547138130392 0.2794929165851985 0.6948501238414087 0.6670438042866751 1.1447713559972694 1.1588410316134665
        0.6992774704334674 0.5462205976985927 0.3907537643731263 0.4773067236002901 0.4010107192272152 0.2567460804543664
        0.05914806581001764 -0.2626254219502016 -0.6725305882416104 -0.3209686263819015 -0.20122080387300634 -0.059891412160260886
        0.08935884693003471 0.19414423105231254 0.6486307157558466 0.6451651660335014 0.6158008322485102 0.7352580692940069
        0.7400475568460411 0.7594525785213364 0.4286106738050973 0.04065682214901861 0.19022050490741438 0.13856419392801372
        -0.010003272676932642 -0.38135267876648216 0.05691387944301729 0.2909882655459621 0.563467370033925 0.27891394604535735
        0.07996438056908953 0.11144038725718072 0.5901088169852302 0.8090952811105427 1.0200789359743831 0.944614008433595
        0.9721141209410648 0.7548010033450657 0.9954870317209971 0.5848104778848331 0.2774267883855238 0.371988469365778
        0.5057489542740827 0.7039910022271415 0.9042396520194882 0.7489541794429087 0.6397372851104953 0.11281687125364878
        0.006242027742984713 0.02242043067823673 -0.0023601034802534226 -0.3171712191904015 -0.17002758892669173 -0.1224610564737412
        0.02698933729077288 0.37484619044685663 -0.17025960163582313 -0.1387089143639102 -0.2463953481329595 -0.12469525803570539
        -0.015453238445639172 -0.05635203254520131 -0.094167478758369 -0.5529076524877402 -0.49881922691419023 -0.14830526980293224
        -0.020539957019794247 -0.12107283112673378 -0.20953361529830808 -0.3860013109812124 -0.37182891637232973 -0.7396917954041763
        -0.4622638427429004 -0.20493003001480237 -0.33121368019504505 -0.3743733337173379 -0.29579657046538343 -0.27598502166350225
        -0.34650262809220844 -0.29380435948258404 -0.6166551761095513 -0.19900549229070671 0.08428159888798548 -0.06395231641723644
        -0.12954144320640726 -0.04492847238526637 -0.5092073336020099 -0.6971504645208992 -0.6722640310955084 -0.7351604505352746
        -0.6596667717897554 -0.6323902123198907 -0.3370712395953787 -0.26618816018677544 -0.20780161925033855 0.016407475664518712
        0.25214216906439996 0.3794985963844836 0.27591900367954364 0.5720277116472852 0.6064038914552564 0.8343262795473078
        0.7199616357577386 0.5095610966435138 0.4029868826100115 0.412406849116381 0.7458062253636931 0.8847209971596688
        0.5247649627781431 0.2466869947922263 -0.07594568009484548 0.014355190110324115 -0.10120173058675687 0.18599293325632685
        0.45196892875988226 0.954942160237178 1.1240030213355543 0.9715197456574844 0.5788895401606367 0.7169829824683307
        0.7155636678771052 0.6345539408744425 0.761991033903882 0.6987566086340601 0.2818867579372099 0.5334296731463767
        0.5508225635367663 0.2836528802328845 0.2418749964732487 0.440619795808166 0.3793896008022356 0.2525301415070389
        -0.0191173049255028 -0.12283856159193932 -0.02994772931270087 0.15934950031547085 0.482098126795593 0.8224385671031595
        1.235630190245621 1.5854125757331077 1.4652412836743756 1.435253388807199 1.2774851040286777 1.190329545193104
        1.3000159145404306 1.1688239627993515 1.1265971334475011 1.5999150131996862 1.2525585074634236 1.1235291926002393
        1.0516650169852262 0.7404734404580888 0.65975333454132 0.8215700508203326 1.098000972539031 1.001565349946488
        1.0887740307631066 1.1319334234789957 1.115778857461248 1.309121900915205 1.2065757055416166 1.054964985353577
        1.1649545781891952 1.3543842004735074 1.2528279961169002 1.2573578168403836 1.1143245232851577 0.943691380424975
        1.1377878496989264 1.204412402461245 1.2536268955772338 1.0809894298214373 1.135032662752741 1.046142277860888
        0.501854990376306 0.2535431759161987 0.5092990553203867 0.2160647334330698 0.023813145271490435 -0.11918033122505967
        0.0040116780813369834 -0.21762591203556897 -0.6160305642388969 -0.41757856877148936 -0.08981424996655583 0.24580462467947045
        0.5344486241731345 0.7018452141496102 0.8285311860190299 1.0164851267506474 0.901916691954553 0.8837082097671115
        0.9264344515169632 1.0366294822260715 0.9928503895050553 0.8901280291775694 1.0130719523902447 0.9078541795103281
        0.5847098132564318 0.7127470961774733 0.9193630290755042 1.0747834909638718 1.0048435297622111 0.6800398500967931
        0.5477015356027337 0.3846115422854201 0.23184163810678524 0.0895394297133465 0.02451944271746441 -0.27051714658943027
        -0.10640410031296371 -0.15136488051279895 -0.4302028671276398 -0.1740471042900283 0.460669669359013 0.115399108786575
        0.2880007363050362 0.3565843407641649 -0.045808112774435306 -0.3115784483263889 -0.23142453619054937 -0.39752672314912524
        -0.6079984756503574 -0.15783282658787412 0.040972842248794786 0.3255576830069501 0.43830464229112776 0.3013758489388946
        0.42260312397896993 0.36781213155455494 0.43970033691977284 0.5735744968786904 0.48388440999741433 0.020128009674460323
        -0.24264114788709545 -0.4674901192374732 -0.3914128373331187 -0.27237221138506257 -0.24928741762841333 -0.009524891450774703
        0.443480444591778 0.3516311520439196 0.6518907440169348 0.7636868119391729 0.8521541198851845 0.7289152768469865
        0.8554625879130447 0.36041140617365136 0.24466896178897093 0.14864080092369178 0.1350133874925068 0.3953535633069883
        0.442556515834592 0.34512830618503465 0.5212584427044274 0.3863136185196737 0.3016739999278661 0.1116921091510181
        0.15579378275797967 0.09786823144833173 0.2021158193561422 0.43339121938904723 0.49438530186253427 0.9808364871107179
        1.222769320756429 1.2674463910903033 1.3498321304778678 1.0870077575956292 1.3010053117783194 1.1736226435487749
        1.3079313951965614 1.7778883531606655 1.734825005266046 1.5798462617754427 1.3677894951078031 0.9840617083415196
        1.0629298516740495 0.949483922571399 0.6777785519908075 0.7312037836161738 0.8678490374123793 0.8743236747382024
        1.0852556127422128 1.2865119339577238 1.504495705378255 1.4918591788248141 1.4539754669287472 1.466803667608859
        1.59506430408104 1.6148141647986418 1.970567702327895 1.7304689756771752 1.6358122435153757 1.2993881056824403
        1.2390822006174622 1.2288053733913245 0.6955363198783794 0.8272019654040206 0.7675052576526679 0.9199261837504118
        0.4744108062246122 0.3104340200072959 0.17777848180263917 0.39252010260913195 0.43512876523238053 0.35225917498290266
        0.16835932975251006 0.03271012845426366 0.13513973987384914 0.37713675356053983 0.6904160449957092 0.8723545579073553
        0.8149268120528055 1.0183829486376175 1.0445561850123313 1.2757215648755902 1.254874196090074 1.3865568261556245
        1.2211729294707863 1.2333437336040354 1.0579924696491623 1.0161314263669774 0.8123483479586904 0.5654515801695357
        0.536223699861798 0.3421834164351735 0.4573424224250292 0.35207072473573797 0.3545661814168275 0.5524738993139258
        0.45422296415291963 0.426852245531386 0.5300484704314516 0.9231239880706569 0.713143633615975 0.7965121590078816
        0.5443490678646896 0.39559109170147044 0.3147096844661993 0.10344491787717494 0.011664643602548347 0.219469521054388
        0.13023721063687543 -0.02064508426733666 0.08463322832218557 0.32460063830814007 0.3026515108609662 0.06875016458136063
        -0.0573584268554543 -0.09209117128347115 0.20125357464032634 -0.11750484276230184 -0.02959585258310883 -0.06805967636362853
        0.008004731568776513 -0.04803504258748972 -0.03923914006908539 -0.16568363554781956 0.12866263972336986 -0.23918539871479227
        -0.32419382078527464 -0.06493200476905547 -0.07894171443117023 -0.038943354740448854 -0.23335138814030892 -0.3218323600247027
        -0.5423144013482664 -0.5431964907446014 -0.478141595757385 -0.647711581522254 -0.9095537318478335 -0.6470772296713293
        -0.5488769518143224 -0.45107182304813426 -0.1921228264242601 -0.48941698793733424 -0.5689004913519866 -0.4131872390910807
        -0.18571081191355132 -0.1069199456365734 0.11873558367036932 0.3905648317888936 0.1743925613481246 0.3835570381867927
        -0.03448762166397859 -0.28406384607466595 -0.20781967767843162 -0.400173645329143 -0.4734247767960957 -0.4610495050797434
        -0.5915710799683191 -0.6868457171524704 -0.6614820736487047 -0.5869158343296033 -0.27467862807784404 -0.33651892813485246
        -0.3780953079633557 -0.281058841225176 0.07960783625332803 0.10111760749561394 0.39082038828075905 0.24330946574813705
        0.07222761212146045 0.2030874568510817 0.27746196882335217 0.41925584298377283 0.37198882860925625 0.3048034941109651
        0.33120872362922105 0.04998007888166983 0.19051695467070714 -0.03240432479813448 -0.3285977754335935 -0.3310912099895105
        -0.3373894198204668 -0.21155700543794112 -0.1418471213598116 0.41203146273350083 0.5600691458562478 0.584403568227504
        0.7138303221689792 0.6374453645693983 0.5250922703427704 0.21170588035143417 0.21585251329524938 0.059702642196532055
        -0.1367215468988055 -0.4918270196683566 -0.016144176384591813 0.09690884510487831 0.19015524131781392 0.3401215330521274
        0.23223798496906717 0.36122742778364514 0.4926724691964584 0.4847367334066157 0.43300033829071893 0.8233042740886292
        0.9925392915795253 1.121017759582276 1.1559320457937994 1.3614142153625197 1.413650701068865 1.6011310532064746
        1.3281482856797804 1.2419202539651701 1.3317472856325367 1.0424041423172405 1.2247301079126238 0.9938717625944132
        0.9054597568734416 0.9986466018329723 1.077836883979045 0.8522440500553978 1.1922246942019499 1.4134241942441361
        1.3391302135766803 1.3865309764451526 0.9954613310175472 0.9297502601646029 0.9102840927347134 1.0264949063801008
        1.0184829842289418 1.1437221994914242 1.3010071737828541 1.3242194848115139 1.2731619742324636 1.1573920858892
        1.5510158108044836 1.2145963158528557 1.2375960556031118 1.4941664050515313 1.420563572585715 1.0848812459886634
        0.7074460501702707 0.7453140528445321 0.4376319475394401 0.5358609311023151 0.7065262981903433 0.8837464712968076
        0.6986248301988086 0.593614483640114 0.6065690450020236 0.25426198626163377 0.3488526297127015 0.6093393835516515
        0.4649906974730388 0.17942137165670208 0.45758629042981236 0.3735972957785466 0.43415719607220354 0.6765270852516
        0.5895292918960922 0.40403216099545014 0.10368681861149331 0.19011513021485438 0.33299350359320246 0.7792632690735248
        0.852419497731424 0.7352888273724423 0.581908561498232 0.6526725705886416 0.6418369271260523 0.7786551025836261
        0.752048364510427 0.9489994171482566 0.7610632295886026 0.46119257974082833 0.35719677987943754 0.21380122549343497
        -0.2987366814889597 0.07728332757324313 0.2172164083987696 0.6203480967805373 0.40675542468438375 0.4212506794397075
        0.8291166132305108 0.2150822414717687 0.08982855982105306 0.15679724596964584 0.22856276783403728 0.23371335661902234
        0.5800315631849771 0.5121888488577534 0.6864167227647843 0.45087526244646564 0.09669392779468489 0.21581658384330307
        0.23615909951959638 0.16685737348858337 -0.03711297892679653 0.008519967087026237 -0.12850608749792305 -0.011981297045421224
        -0.11552045671578512 -0.037403961747569395 -0.04971816023615855 0.03370652691451527 0.01779623595832085 -0.05697628630237864
        -0.43109579742473425 -0.42144758455620984 -0.2636197919660676 -0.3250554804916444 -0.49554452455371034 -0.5403845284188278
        -0.00946880419678027 -0.16539947295584737 0.07508528992378649 0.23642900380485657 0.4055063926845033 0.4407929483608899
        0.3334239767410091 0.0760589532123736 0.62721863248447 0.4639526202794794 0.47663236586520724 0.9674525130569314
        0.7747448994082077 0.4743954702055314 0.42688986650106375 0.4852139519498912 0.7055494492128698 0.6796841265631375
        0.6984377472871015 0.5731132508131433 0.5839752900676793 0.6495274198405245 0.4289853959352224 0.9269824683649412
        1.0356267674344835 1.1448003897008714 1.3880139522711201 1.5199331644713951 1.2517839921544047 1.4245508669072366
        1.2132765428150367 0.8278736782237521 1.1823009465122918 1.273129385365183 1.5233315238255776 1.3663024436037725
        1.3913649610634602 1.2113122062106954 1.1867935555695575 1.6161325096143397 1.8547442302013246 1.7049253186033615
        1.6675663539027672 1.54656053943578 1.3104531465656502 1.189320994226533 1.185671452725958 1.1414331282373655
        1.272887061597087 1.1120600087838828 0.7116948790136521 0.39999624972168735 0.6319289884876437 0.7228986211188457
        0.5390307675024438 0.44723570558704007 0.3753495824196278 0.46523240032742147 0.3310559781086089 0.35340088313228557
        0.47617601973980017 0.6629064115738427 0.5584602899010223 0.5432143261194367 0.9426693876482644 0.9207274256057788
        0.928572210508265 1.1099543779661054 1.1264734119124813 1.2802828323348694 1.178747221436496 0.8307748184969088
        1.0659091966440837 0.9097228595801199 1.1803992274819677 0.8483185697986035 0.8259347523397051 0.6054571411692329
        0.7675230941995705 0.7661019800540959 0.3600247297848197 0.5221402207142707 0.41576498916915805 0.6716702592551804
        0.8343053310138486 0.7859390857224735 0.6747301560054324 0.4684438474242592 0.4085603760586306 0.24342304336958562
        0.4758012642411178 0.161657953823715 -0.10960367482959989 -0.06694680836155507 -0.030359466308229957 -0.2762443332975417
        -0.3920091954735583 -0.5772676588958892 -0.4921969733267001 -0.6504354662126689 -0.6200100517682053 -0.7829446293834545
        -1.0082319940843938 -0.7869619371447156 -0.8310094338128371 -0.7008634197299652 -0.8985065106973454 -0.6815898479821079
        -0.16034868620197137 0.1336657996978654 0.22853522266319415 0.15251665381529583 -0.4607808083799338 -0.48685013059010696
        -0.32636647426285137 -0.0049126861292197455 -0.39609270865175966 -0.30691791448552536 -0.26041661571146113 -0.5610491187247286
        -0.3302356909614824 -0.32933258649532837 -0.2639515114811077 -0.22768720856344782 -0.2617128941975243 -0.39973933862432365
        -0.18834498177130393 -0.34240292676528 -0.22257877859302205 -0.22547944226149544 -0.22043486607267687 -0.11888001602946628
        -0.2361016933933533 -0.24704894235885597 0.10087407238950413 0.12111612799546308 -0.06832562899409698 0.05482680937004514
        0.2489645661940233 0.022240565170694518 -0.19244049871341257 -0.41979711696149874 -0.6433910531193165 -0.8505031033290487
        -0.8766558328144566 -0.6201051927282207 -0.4553714867833453 -0.6729289921140891 -0.7594618923890872 -0.3152071312062664
        -0.09878812127590303 -0.22990960148022055 -0.3362542450343421 0.11717136225901167 0.1341698325825369 0.19293454930842205
        0.09938360939297848 0.4411790908324762 0.2682843409603257 0.3484630973391569 0.07419975544958468 0.2736192229729918
        0.27086701627148263 0.03780862483018782 0.24144687585315666 0.07222729865506396 -0.14852078726689874 0.1692691145430209
        0.5036924113226612 0.5943026976946982 0.39846956890130253 0.7328376750594106 1.0391719198650917 0.7353182038116213
        0.8356556346357591 0.712916234314412 0.3948152904123625 0.3496912708298435 0.38298413019315247 0.2681363159492425
        0.24629466327183397 0.4583736817850811 0.5215682504120752 0.44707236686820884 0.5628404759439842 0.6016020260717801
        0.40845993040368245 0.6872529230133821 0.8409722070646912 0.7232937516952209 0.8084741449022665 1.0285216620068627
        1.1539706625920787 1.313740999641267 1.5614804948017793 1.5410203388513073 1.4280521638846169 0.9855920609352965
        0.9857457142086177 0.9337309034960675 0.6205045457888543 0.5876814101659947 0.5868315318399678 0.7094828311832863
        0.518524074651144 0.7461748174563783 0.8656375864619411 0.7437510513452126 0.8487320503018286 1.1059975245407843
        1.142205291379926 1.1012912994726864 1.176459532151936 1.3419013113497504 1.4638661220620406 1.368439894415956
        1.4548663038529672 1.4592752602518453 1.3100339220527546 1.4405370186657989 1.1379050945381275 1.4077023866291136
        1.167776443468015 0.7358120670753652 0.6330452268653163 0.6930999806366595 0.6938592677207486 0.571372005918324
        0.5343510055299717 0.5233889784551741 0.3684624985565184 0.26791916459115683 0.47791096482730727 0.4410599638950586
        0.3905253387913872 0.451128362988939 0.5847721352573931 0.6672134736420654 0.811516000712903 0.6949898106164872
        0.19915293862442604 0.23876560949690456 0.7239318461781262 0.8235079292739582 1.0635825054977013 1.1729746907783691
        1.0959232668115786 1.2326457451942798 1.1460632895222993 0.8522009106737004 0.9369204701700037 0.3764376863829627
        0.3364004569891343 0.3538481474245169 0.4026559927804173 0.40857480708612737 0.6330575702449178 0.5663456385131143
        0.2895506635342377 0.18330302916016958 0.12885572305042664 0.12960538177198044 0.36660481947981843 0.31065462389227255
        0.2631689529106497 0.02629245376203447 0.46305306559789994 0.1563143913882912 -0.11759691080671225 -0.04442497342066011
        0.012593812138972926 0.09390277812265119 0.20264964196353297 0.19788650523485324 0.16080301871959865 0.22085206402771676
        -0.0647996130305108 0.1375471851954561 0.2544256642897955 0.8690908973156195 0.6214071481604699 0.4667461860627034
        0.3352865113127968 0.1558560427793041 0.42463392339420025 0.20917018074917526 0.2116591571834176 0.5231740514417462
        0.44071230191370936 0.23624298057469045 0.14019426869975454 0.12281377306302474 0.3798777024585499 0.2446669498261335
        -0.42279941185971986 -0.503495536230121 -0.6761395907192764 -0.959573298654299 -0.6756514292977023 -0.5735960783889222
        -0.567765111683647 -0.14150219319620275 0.11174271037090594 0.20883372991715118 0.42648530984946464 0.7156923848737438
        0.6076030994747327 0.537482252188804 0.8692810200969132 0.649893758566332 0.7537564317381864 0.5386943843058575
        0.8378171869023838 0.73798429385104 0.8442916493088581 0.5375061992512962 0.7623649028956929 0.9197202864554912
        1.0939402789364667 1.154652390498653 1.2706349092901408 1.3513046988235884 1.5654745168261328 1.229018766479655
        1.437951233113436 1.4137401647504726 1.3105675765363374 1.391177515759595 1.1023765865336972 1.373376213738867
        1.3883035761635973 1.7612546207516417 1.686693473013283 1.7283762686085717 1.8104727421245619 1.6848962446803568
        1.5258558531565718 1.4064357665047775 1.277894649241266 1.0815498634406056 0.9593929865943192 1.1894282214764758
        0.829002846203775 1.0152633315759776 1.0367109314653007 1.0811859101705894 0.6432376906350438 0.5657656289494453
        0.5043885746149337 0.6518071166353526 0.6950968305396167 0.6343925502075031 0.7411511630463765 0.826575012271765
        1.0708139375816954 1.142274894312258 0.5377255661267809 0.8984720194148935 1.196254927301563 1.3033069233256667
        1.273463901014033 1.272205536788843 1.4165155363110327 1.5105053973806852 1.4226735671565005 1.390444181263673
        1.120664660783967 1.1208032981414155 1.0449710198806053 1.4193209075824218 1.3350624440174739 1.387485358699088
        1.0227755231052775 0.7880114064018813 0.8141677863786247 0.9253104754872538 0.8524449155830652 1.0323142996118544
        0.8975537164317209 0.8687340117025278 0.44143949140206845 0.056120578543881694 0.2664980537345932 0.6446284191426377
        0.9164085890621219 0.5803070646281061 0.20074889073050617 0.0681209564431398 -0.046867052857438585 0.19004486516829242
        -0.014511682190682065 -0.06454363917495423 -0.4124716257076937 -0.4553622012794027 -0.6650643323871847 -0.7498856630111171
        -0.410450145983293 0.0015377335838830941 -0.010964711075208994 -0.1905308026329127 -0.5738185894108185 -0.8973970138990721
        -0.6935997737143527 -0.7403476532794468 -0.810534946183391 -0.5701976211219386 -0.6514922509904764 -0.5821409513109296
        -0.6669919480410226 -0.5082241775729202 -0.7557801226252838 -0.7640108410490721 -0.695966595463499 -0.6664907423063912
        -0.46086944374419847 -0.5606204698026324 -0.7754579484320205 -0.7358433388537944 -0.8343656232672519 -0.7213209720612075
        -0.9701506580059058 -1.1268452459531395 -0.7714520922829735 -0.7124235916185597 -0.47129097549585275 -0.16649903406670918
        -0.3105861414904117 -0.28844147797490594 -0.21519227939074004 0.16139678620248787 0.1767258592856995 0.34716769377942663
        0.09996596008440649 -0.12213491252414724 -0.25889233390895844 -0.002626832555930797 0.07962136881837789 0.14256627202487693
        0.004526972690016007 0.12606063856835908 0.44085412425024545 0.24666614867202483 0.10163438892524328 -0.004575900349834586
        -0.2443921459953613 -0.3526705078082174 -0.3035529097944413 -0.19997813482525909 -0.09767802308017816 0.12293048819877064
        0.285249094444069 0.2014241918189733 0.47612377748742496 0.039995966944829375 0.27322544435299556 0.43601413441670234
        0.23833029390405724 0.1419901781626449 0.20976978477618985 0.09219885613679724 0.6313661021613516 0.5241341166240987
        0.593657213757351 0.50531820926415 0.39127166723698925 0.007512481841918051 0.3708131999250156 0.4659229955837183
        0.44415584917246403 0.586214655959507 0.5204492206148551 0.650604376919542 0.726032595787495 0.8321200122410184
        1.0703571441119222 0.8122961484172706 0.46990654960885875 0.2819452668240565 0.24693258796386575 0.25631350074447345
        0.4423522806285992 0.5971461638558022 0.5893135611861876 0.6964789024357761 0.5808342668387427 0.6280245063926452
        0.7618393330983634 0.9354062384145262 0.8583112610581907 1.0509738978466354 0.9757718785508891 1.1778387359658071
        0.9494594132604688 1.3223568797680043 1.354774765964027 1.3902407030588448 1.486357071495353 1.5842600330426106
        1.4158270488345952 1.1764397614945716 0.9834001896323081 0.7286934125509849 0.6191011530148065 0.9546067520903944
        1.1008470255113003 1.363595292676421 1.5826033663216892 1.6086905849508593 1.5035729404492948 1.617694899409594
        1.2387360448185079 0.9945633904013805 1.183202829320539 1.2082647319099376 1.1880252001604958 1.4332537702471693
        1.4982412029888597 1.6918946613250068 1.299779374659374 1.3419865218391749 1.6571257852812924 1.7851167063111752
        1.5424429783993627 1.3968763135106481 0.8219484555725383 0.6910164134582594 0.47634438356909753 0.4738993081250755
        0.48019380144108326 0.632542603864431 0.6828371349585255 0.801687980118156 0.725294398546502 0.8344977770823376
        0.7197725687103561 0.4487197958277743 0.2652785608325175 0.11546812862157946 0.07264944358354071 -0.18740818289044595
        -0.052203592894105144 0.28644575169034925 0.21376590592725736 0.31574170799580586 0.5656386700526 0.732197805526468
        0.8217239116307529 0.8525194865793291 0.6344714304326006 0.2285468654066288 0.25038266637269074 0.08998657992620487
        0.21051922285843577 0.18546443872035606 0.16585431409939141 -0.035903212055148674 -0.14756523734421406 -0.40995346956009937
        -0.006863583558043895 0.32044115424097314 0.3672639152925411 0.32404859244617956 0.24014685867375746 0.20685416171996462
        0.3198872297319194 0.3564243100359572 -0.02534658152507724 0.07309036764324066 0.06655032328012656 0.035061128697324834
        0.010882532970483402 0.23514625684085702 0.6761006539335082 0.8489313392117734 1.0211559157603232 0.7430446888605962
        0.8029302721361702 0.9581772187527912 0.8135578383809512 0.9658171997370986 0.7879060787590555 0.4827422745517949
        0.40163165473896584 0.4905615238690273 0.5803555387587018 0.881355456651532 0.7449743317963267 0.6092148402843538
        0.5921589512503015 0.46574833040549835 0.536051559183089 0.5036619859404524 0.4521095389786486 0.6397094285054123
        -0.27227536103856875 -0.4736415703378244 -0.3089028397380888 -0.2854395824219482 -0.18459697041257744 0.0899122516078314
        0.17434354718604228 0.2629568458974254 0.5279878181229286 0.7874651858778292 0.6425073748876201 0.48285329106355623
        0.90420427386406 0.8453669243654559 0.92571247625609 0.4954663318606638 0.08597173751952697 0.4027023028919574
        0.345379526094488 0.58659682249388 0.6363212943921145 0.6514621544402539 1.0132533162766302 0.9337186215382614
        1.1134408459214646 1.2969665058802355 1.4288149375772023 1.2891371716471356 1.5110232746239556 1.2727868410265584
        1.6076362398233248 1.6240966880616579 1.8526591215910653 1.777719829778903 1.5258694499045866 1.4913992470757513
        1.5881703174354314 1.4742135926349438 1.1534772737357246 1.234757260777069 1.0972210679755807 0.9062802159887219
        0.8215333714044066 0.6466134691713695 0.8653168094718006 0.6916884198686487 0.3396038183832266 0.2821358704349119
        0.5831390937666292 0.751595766025904 0.8156842991715356 0.672803680034628 0.7649188994373222 0.501959861969671
        0.764330292209698 1.1348868751015742 1.1554286287161353 1.114205093390806 1.041408167750493 0.9596701047455974
        0.9362211347106999 1.0673891894413532 0.8862011309929002 1.1969360800862687 1.3121149769093383 1.4280064957612288
        1.2234817877586783 1.3454293837123303 1.638291604072058 1.5258442827219418 1.6074213234942516 1.4774624488031824
        1.0525593155062447 1.2386506863941318 1.3796395115004534 1.75633017343555 1.4731732735122853 1.3305892520826048
        0.9772139694806683 0.6373179780557251 0.36209584328174493 0.37717235271174776 0.6207774435559198 0.5272005043565748
        0.8684949169126146 1.065267033572618 1.3239415049787624 1.043221225609336 0.779286754888979 0.7643364257347703
        0.5802850816103339 0.5615017295128849 0.4264239586541738 0.2179564902447246 0.027886103369551857 0.26547465947864696
        -0.01518101315256376 -0.18454520488371795 -0.29222961334788794 0.03743337714501074 0.2758030240586208 0.08255375160373901
        -0.19744956847491632 0.045082755610912933 -0.03160453078102263 -0.359979922086461 -0.3064454973628094 -0.6372999462360226
        -0.8211723231563148 -0.965141898254195 -0.6098879755881093 -0.6039056075234615 -0.6490404355047023 -0.8274204578910509
        -1.1098735257825052 -1.1970144489515635 -1.102677010046098 -0.729044489567557 -0.7067228719774543 -0.9347560689966393
        -0.9965320239389412 -1.0961026693944436 -1.0609083405074307 -1.2499272310541918 -1.6030439977910957 -1.600191547266958
        -1.4960456054767632 -1.0952517719137924 -0.871198415590214 -0.8988144908348283 -0.5145818804568603 -0.5708179474141676
        -0.7343193620612484 -0.7057335831157063 -0.22839292945028233 -0.27726391786852306 0.24900294543096926 -0.04884062006964851
        -0.11867409220154194 -0.2351268437071203 -0.23585756046242431 -0.08635184488540415 -0.23164734151445415 -0.7117799479277238
        -0.7256434350042603 -0.7042988744663757 -0.47894195709907045 -0.48690906475760554 -0.463338658492662 -0.1325414103798362
        0.10690148064522781 0.145786161560118 0.07996034283890527 0.09999039145757896 0.22054309366553282 0.17576778684032998
        0.05271947885708839 0.4493406317525492 0.35840670156228815 0.13009055930375463 -0.12139422502206335 -0.33020481909435684
        -0.09170418507906941 -0.29424377693815384 -0.036112170792930956 -0.1348340262319937 0.0025896794853225436 0.0669845143297808
        0.3384747605997175 0.43734419356531784 0.49340601587701305 0.4900614348606689 0.14571958215803119 0.2429028564034884
        0.4712804481958276 0.46769247299998484 0.2704717619171939 0.08163688931344103 0.05537866500753813 0.03992652208348701
        0.0963364132755457 0.23680829521279959 0.32097283567881546 0.4418936568036607 0.1953396046178586 0.23079734307311944
        0.51001419761787 0.5244826365661451 0.6048675779657273 0.7691594317318223 0.43440616613830946 0.7460053187532887
        0.8133346300435566 0.7489282911332238 0.5095135785453221 0.5488762446940902 0.6748920398978574 0.5335021479066403
        0.598623899827244 0.8237110349233956 0.7487565054952839 0.9899485839350715 1.2021482437144284 1.3402418112710162
        1.4376259704446939 1.5844620321664848 1.398893588826737 1.3859720723350397 1.2676104084578528 1.2924391721818442
        1.2056299161727295 1.1172851407212905 1.099105869926189 1.0768398116684856 1.2629820411664106 1.2329364937563339