<?xml version="1.0"?>
<VTKFile type="ImageData" version="0.1" byte_order="LittleEndian" header_type="UInt32" compressor="vtkZLibDataCompressor">
  <ImageData WholeExtent="0 301 0 100 0 0" Origin="0 0 0" Spacing="0.01 0.01 1" Direction="1 0 0 0 1 0 0 0 1">
  <Piece Extent="0 301 0 100 0 0">
    <PointData>
    </PointData>
    <CellData Scalars="qx">
      <DataArray type="Float64" Name="qx" format="ascii" RangeMin="0.02583555479158712" RangeMax="2.276574377040988">
        0.49969518228184484 0.48386896105665345 0.4381895628232148 0.4037316193229121 0.3913350865948685 0.37753630169195
        0.3663068502958847 0.3734009035257739 0.3861596311490195 0.3768875741683878 0.36855881814031677 0.3415021681497268
        0.29397765139665244 0.2677118905721994 0.24758167517206725 0.2306962272119246 0.2261579724717701 0.2305046234643272
        0.26128731998213617 0.33600109691379765 0.410740749060711 0.46398861338188463 0.52726561057501 0.6100463818660079
        0.7098516338436391 0.7828915299102102 0.7979314081754327 0.8300520783928537 0.8696828024244231 0.9009628954766794
        0.8954517846286467 0.8481072826361444 0.7954171966069793 0.7631492900724948 0.7567286663447945 0.7488901936829782
        0.6909237436629184 0.6442539778211289 0.6607117834685416 0.6892012369743132 0.6855616839874348 0.6596333416195831
        0.661921371385099 0.698279702003235 0.7241899330657328 0.7222825475131082 0.7147804468713691 0.7481466098579432
        0.7973446705441007 0.7767915661344681 0.702439653157899 0.6031645279247766 0.5153580309317026 0.4510529331763423
        0.41817851549337454 0.41284760176481766 0.4924443326107068 0.588138000382219 0.6444596864662495 0.6739003978399954
        0.6270156152388544 0.5834141275796108 0.5448438877064533 0.5051719440985324 0.45107127831172406 0.3955699415023594
        0.3415891802456534 0.28472729998988794 0.2314173276071055 0.21320433487544901 0.22052950969150054 0.2378649741179736
        0.27736285800469396 0.31888481540286917 0.3682562298784106 0.4149540231924827 0.4284531696447837 0.45399807980528384
        0.4860728024118786 0.4971335109689048 0.4553906783203228 0.3879715916105992 0.3662449326898253 0.3721578295926054
        0.351909826623822 0.32029567875353265 0.33540490130025397 0.4025354095759456 0.4593753610786494 0.45296689922269656
        0.41322776392600014 0.42063765601957576 0.4832353567676255 0.5743397282826612 0.6624926928993301 0.7183423529820986
        0.7384141172759313 0.7473112960099537 0.7557577440502338 0.7327150199198933 0.6718497413630277 0.6362475208314239
        0.6457299083445887 0.6896483552353478 0.7169659011633458 0.6908296615943194 0.6303310800970738 0.5630073520413723
        0.5213631619253595 0.4974684599500596 0.45874599217102885 0.4136444793683509 0.40047334884687696 0.4007189965157801
        0.4005520103481712 0.40112216096973935 0.36915710366659127 0.3393423245436035 0.3290499997020438 0.33728754554866336
        0.35726362592728467 0.34615358984461897 0.31898374307771526 0.28369452025128983 0.2719290596256664 0.3005264367823608
        0.33834437294236175 0.3421752505628436 0.3188688540415028 0.2900426227922789 0.2726525475165588 0.24808037219706547
        0.23094440613821512 0.23727987287514254 0.23414473119083828 0.2283221092028312 0.23459971081724904 0.23707502488003984
        0.23199398786074177 0.22620212059294106 0.2102698192891738 0.2060410826076448 0.23927181570126496 0.2569398178347835
        0.25966541934272724 0.26924283091090245 0.2511886300314432 0.22921354003814687 0.23058044855905252 0.24027732796043433
        0.25891035816134467 0.2880172141434978 0.3247739244160845 0.36914945646835934 0.39879643057461867 0.43889835642609215
        0.5070191700985817 0.5756619337250976 0.615056682853605 0.6574572716686177 0.7204026636824339 0.7942647739340977
        0.8658260647903059 0.856799029651657 0.8154870097989996 0.8000815171252468 0.83997704041862 0.8935543190289283
        0.8464090723757435 0.7601131525609685 0.6830671163034037 0.6622081314813244 0.7163402485779433 0.7837083449781427
        0.8835426186240478 1.006916475206267 1.1277676119632811 1.1227824191212614 0.9791827576571588 0.9096431366152306
        0.9010134101743338 0.9034904436769796 0.9542355197218458 1.0110724412264018 0.9741710411758189 0.9526343703452321
        0.9698502360200106 0.9301892964765698 0.8549266429734589 0.7790475748584721 0.7315555250820253 0.6586078794949849
        0.5793790298937361 0.5218385018664207 0.4976160246380815 0.5375109215255828 0.6368381166271425 0.7466461117346836
        0.8704828840911701 1.0089902900988348 1.0687642454629949 1.0364307101259351 0.9749283006155849 0.9280297976826652
        0.9526806660963102 1.0051593552688685 1.0292752737704227 1.1274766203953224 1.1556044245163728 1.0653259687094636
        0.9959522404679461 0.8778247675074992 0.7700155952610981 0.7665626895614356 0.8012702893620477 0.7813433494870191
        0.7733068726111489 0.8033785285141228 0.8512607667960632 0.8888091726838367 0.8728426937930982 0.8107393735582847
        0.7729581231602716 0.7733328769583079 0.7571175973552492 0.7231104251899659 0.6927201214801372 0.6648196687731428
        0.6627564329076355 0.7314328151188649 0.802188404023629 0.7835923638061024 0.7489374857256362 0.7517157419377609
        0.6948553248353483 0.6117873329185916 0.5833347886921828 0.543469069119163 0.44605658568078993 0.36201265905184193
        0.33035220591010706 0.3135109643544748 0.27506209932679154 0.2807900840428608 0.3316578940110922 0.4021428826634904
        0.5142455070022187 0.6356573701580135 0.6865394895335055 0.7006192394676698 0.6926228306775586 0.6538662780594405
        0.640088254506786 0.6727817625245897 0.7217019065760468 0.7504825518671011 0.7621823250081721 0.7446481389721555
        0.6712942080280259 0.6573481546315243 0.7101134830835868 0.7532041210826337 0.7401371599012188 0.6618816377661807
        0.5756150691556514 0.4989782710306263 0.4364191713112404 0.41028056329707047 0.38729497847189315 0.3567342700059247
        0.36430516631869 0.3665627432570397 0.32610092253185946 0.3137363823276266 0.36582858492984033 0.41444098321239414
        0.39532509800883076 0.3983283506184263 0.3723866156571334 0.31136404677899593 0.270961951157387 0.24385721368099722
        0.2153046013746842 0.21451923800990413 0.2455261338359333 0.28143927466736146 0.326181565906426 0.3436371305679952
        0.3462537279864801 0.3534609964757713 0.36163062281455455 0.3670538639426568 0.35586883991634777 0.31081595351625363
        0.26008511168840054 0.23084155866798392 0.22155520205670506 0.22779649251160694 0.23675819433348722 0.25278404151090117
        0.2655586304008915 0.437865660670577 0.4491499299274752 0.4924684781047225 0.5368115254124362 0.5555489311367033
        0.5532019203709198 0.5245376207594014 0.43816013980484275 0.3602519274477006 0.3077314758763949 0.2735884950887103
        0.279107036141009 0.32072491210019943 0.3488336717147224 0.36132820625692064 0.3676513897200807 0.37163881306413843
        0.34746602061345844 0.3238811883113245 0.32107423403468893 0.3262990634531317 0.3580039320895488 0.38094651836306437
        0.4068679290726915 0.4477427993308765 0.4823792920616675 0.526832977047612 0.5238799345828655 0.5190021399717718
        0.5119203321912825 0.517030198793461 0.5871674846750028 0.6466057579807244 0.6267117284864693 0.5786354700011607
        0.5104726040483383 0.4993984975316098 0.5247879130282845 0.4732055459809006 0.41864210923376366 0.4298248136764208
        0.4961721309959537 0.5855518351445201 0.7010112683787337 0.8217188545821301 0.8818768279676319 0.8627625971701534
        0.8490424948763955 0.8715946993784446 0.9504421671785823 1.0795696213049306 1.1731022193302572 1.1646884004911502
        1.085920269501184 0.9815955229263323 0.8959071182074461 0.7658804985419546 0.6809159656416337 0.6282713528635143
        0.5592588313843182 0.5130744345354281 0.46449004944185696 0.441730667550929 0.43989354999073216 0.44220906003645327
        0.4276716885786702 0.39286118167529066 0.36291096529977285 0.3719582290364826 0.41356200693821155 0.470761693352222
        0.5600515210585041 0.6393375555165013 0.6868150621775728 0.7200925467155357 0.7361982926093399 0.7902480965618388
        0.8608122073209854 0.8806078239195178 0.8700482221614105 0.8541725722750232 0.8272962898386537 0.7671855573847112
        0.660420719619592 0.5924611279728778 0.5475996337429525 0.5471674707122159 0.5272925311754019 0.49512448573445905
        0.5053483343815788 0.5201629525516689 0.5276072466050468 0.558251391447585 0.6126010415644818 0.6317141646553238
        0.6046562867080525 0.557399987571712 0.5048829018825908 0.4771587230966514 0.45502915492938617 0.45333465941269185
        0.4713711339157022 0.46619896035401337 0.4110948794005918 0.3716211716377899 0.39237699912346685 0.4402375750517202
        0.47283580174343787 0.4801953513794593 0.4695465455306222 0.47548829943412063 0.48056832228723134 0.4600211607119721
        0.44220246414487463 0.4078300413063203 0.35408515557635384 0.33612864850996343 0.33771317658618577 0.36769557007764564
        0.3644652865040258 0.31744328000005323 0.3056478035936425 0.32902759484969357 0.3584454515180483 0.3494553679642734
        0.3143345459606687 0.2656225356369397 0.23606512461667495 0.23052824580310638 0.21596142635284285 0.18987683278137243
        0.19384479779516958 0.20896683481137332 0.21136169227105905 0.22283574038377735 0.216460330608653 0.19664545101806513
        0.19926104049133433 0.23367032794129267 0.2793672297079315 0.3219272138872184 0.35695844799315446 0.35857643490521984
        0.3525687949344972 0.32410411106684534 0.275755334079274 0.27405568583777445 0.28397022408665396 0.28566393509672067
        0.2939125654219527 0.2948619001870654 0.28090017745737017 0.27013328252683805 0.28237224822338935 0.3214567382788736
        0.3356845149723173 0.3153111910652088 0.32889013109419224 0.39830104364325486 0.46456226948145873 0.5072322796367355
        0.5347524499531682 0.5234228632469932 0.559714931092449 0.6343142238519365 0.6993865927036758 0.7015022269970511
        0.637379040418986 0.6246305684961833 0.6374878578936919 0.6620440073922103 0.6551390572209947 0.5945238380247406
        0.526367090096485 0.45328050142999493 0.4110296218951437 0.4203050036594194 0.5135645059664964 0.6880642563748519
        0.7835471363915982 0.829799121322173 0.853716978888251 0.8435271659649417 0.7731516457708346 0.7458753555577474
        0.696560296297061 0.5853981429612624 0.484612111562158 0.4797172917060072 0.5458043406201019 0.5811593312923127
        0.6304799836871153 0.6826254321808258 0.7129269394028742 0.7383732624562138 0.7595094023022618 0.7458903734943239
        0.7533936414955442 0.8061078786836048 0.803679566433639 0.8041502662607652 0.8736882724351789 0.996718403722264
        1.1327018486271432 1.1435414418082217 1.083449621730672 1.1036673001278898 1.0302346861725418 0.9768790616730265
        0.9740102373264476 0.9200272129267615 0.9413190206094958 0.9554374171259898 0.9133657801913047 0.9073525244086825
        0.9871132380068867 1.0317900784690268 1.0157077642407166 0.8952428716099492 0.743321426824803 0.6647453593734772
        0.6678504434747301 0.6718364949174213 0.6626325555639833 0.7130673730533734 0.7617004950270732 0.7776357566747378
        0.7764005601787826 0.8214341041844455 0.8806280169165761 0.8902127423625318 0.9686084490553505 1.016501408449385
        0.9428961595491598 0.8627430598971559 0.816049907174014 0.7296679641677842 0.6908362667613581 0.7259856818074225
        0.7572920367507467 0.7442004051083224 0.7106238924258741 0.7001735454757337 0.6385042508141167 0.5781422249181282
        0.5864938829549838 0.6013842692398259 0.5240991794552942 0.4717509860709945 0.44126033478295784 0.42223417375169586
        0.4388642977116471 0.44609656468807707 0.3976888701360787 0.3420647977617844 0.3519832789696917 0.4036704728716315
        0.5232409949101475 0.6726304948691383 0.6886442176298738 0.6176490416277551 0.5650925785611562 0.5560729672394898
        0.5998732928438774 0.6680951664439155 0.7158406485543141 0.7132459807098724 0.6405142966820736 0.562137188555114
        0.49657557364409716 0.414335334770237 0.40649085056044426 0.47690734807662316 0.5488232454470777 0.5759029500730158
        0.5471362652711448 0.5633040820090514 0.4989456470909875 0.4249279167604132 0.40769594535829073 0.4105026405105159
        0.42816325499117247 0.48292323354471445 0.5076935867151519 0.4766274867192496 0.40783233722753015 0.31048961041799733
        0.29116811637324963 0.2987730547632628 0.28983601165696016 0.2583478427550151 0.23151723105921587 0.22619966047907947
        0.2411468344608576 0.26022209642027444 0.28557917248984027 0.3068516623856636 0.3129090358121961 0.3071966081167627
        0.2888002096616849 0.2782115049038452 0.1891260644944024 0.19570028373068926 0.20524109757847575 0.19955642569126178
        0.17875527432159205 0.16595168232237623 0.18419825561497374 0.2285445703887182 0.24509433059971622 0.2740895851530325
        0.3007061197114384 0.31025692835861657 0.3027608658378759 0.2958452437191861 0.321547740378439 0.39301165684338113
        0.4429549279748174 0.5310836609734548 0.572570851984975 0.4969494116218737 0.4391805805967706 0.42617342746790776
        0.42201569877018363 0.39644172581449866 0.33704411702967746 0.29495987521278655 0.27751158450303226 0.2837089074041131
        0.2758172899179464 0.3063294753177167 0.37987454450266916 0.3994275760772135 0.4381658088685238 0.5138639084119432
        0.5637284227172247 0.6116119066896498 0.6143526334726622 0.5443005058588556 0.5591815137266943 0.6598406002759623
        0.7377686835599866 0.8020740688037699 0.8230754147622262 0.7965464495280901 0.7678637955114156 0.8658231473145677
        1.0606354103116082 1.1004644139824704 1.0381952484662198 0.9514633855531545 0.8083521410375538 0.7234070593780444
        0.7517270503863138 0.8278195040410857 0.8719074182366235 0.8230381585946561 0.6882966602853982 0.5546355554643618
        0.5073393115279066 0.5166401545702686 0.5170630268053457 0.49286543901248536 0.5071453174001308 0.5092118080107831
        0.455284334509328 0.42704686242273415 0.46152718907281154 0.5246533391024956 0.5383856231538732 0.5177440245935464
        0.5622467044647145 0.6510160061957609 0.7217795388450382 0.7860158394776403 0.8077290676521417 0.7796321923572057
        0.7284609982617279 0.6483362478058897 0.6601872939263271 0.7366771216294979 0.7989490789297504 0.8019063916442375
        0.7418616435666141 0.6888873886403893 0.6585410688812836 0.6585415341655877 0.5929263788871725 0.569706758565096
        0.5763859189115262 0.5788372459940313 0.6208121417408475 0.6650886253402486 0.6596147741888397 0.5759075215831841
        0.4935827000028998 0.43889531876347976 0.42238972984926343 0.41422132255108074 0.3679331083690377 0.3581111823629465
        0.36624064894781455 0.34047456097063067 0.292716209204479 0.2416559687215687 0.20499674712368385 0.18686031998865069
        0.1855337242101651 0.19957587246612019 0.19905981598171815 0.20027978353935458 0.20631162728146635 0.21218611212389937
        0.211701700362525 0.21945592161705388 0.2700906431473204 0.3434275614754532 0.3938946260855424 0.39767283444812196
        0.32125205525554573 0.2721190582772006 0.2745627895495635 0.2899526798545434 0.2867694193660917 0.2795284667035275
        0.2904124677278106 0.27803542459704494 0.2764940686537152 0.29557994323316805 0.29919759487146036 0.3019344442446623
        0.3032021038711411 0.2797009003819282 0.2699137126236284 0.2670911480420778 0.2538983660313811 0.24955330808046494
        0.24554011200556183 0.24912601749473542 0.2563632441401613 0.26786658701514404 0.29881473340894876 0.3124501502977924
        0.29436815864286275 0.29771827998519945 0.338750396349378 0.3567158140153977 0.3129218020116322 0.2686914419692435
        0.2426893824177757 0.2177310773779679 0.2136487190792113 0.24158023172199705 0.27977513407193677 0.2814889796873841
        0.2616207460721219 0.2757215493719841 0.332689796656578 0.35784880243012984 0.3476026362415743 0.3983861098880964
        0.47267719464172203 0.4952092478300492 0.5457808591434483 0.6322149356006879 0.6898711439800531 0.6855996245133607
        0.6236055731758597 0.5813549530632746 0.6092490043701589 0.6118882564041529 0.6413368682612287 0.6913113682315146
        0.6836747962650279 0.6996014965385893 0.8031933938817595 0.8769078053785929 0.8790035597109214 0.9182261293463901
        1.0308614293166696 1.0434421957828317 0.9678786023830019 0.9227872807861253 0.8619276595443909 0.8435350444385623
        0.8746348821815899 0.8795891143625527 0.8620046219844224 0.8904333438406002 0.9022411851691474 0.8540229572094523
        0.8454541391261011 0.8690035185762716 0.8515093028929226 0.8742642973442476 0.9671068765784644 0.9832002450928666
        0.9768385420598156 1.0049809165812535 1.0400841926801732 1.0567420314312939 1.1105502277935995 1.1545428483759068
        1.0658418382136623 0.85901787635948 0.7487659200412571 0.7372530968822493 0.6666732107364272 0.6201691321017498
        0.6186732737364588 0.6430488344579789 0.6465806116967446 0.6633806418278372 0.7071117356268581 0.713984881195812
        0.7134976351500337 0.7413307051929252 0.8220895722562377 0.8755303927188749 0.9204754519127619 0.969844455277299
        1.0254256401474169 1.011309956058587 0.9588625627512933 0.9152038406564157 0.8607203091736461 0.8393005506382656
        0.780140925325953 0.7428833573003208 0.7007935693597859 0.5727958707093009 0.5303759376508603 0.52171794425253
        0.5359634053115908 0.5802405739461127 0.6370800925045021 0.6550956851578661 0.6229170317036983 0.5691101725549311
        0.5470366714500244 0.5343504488278551 0.5223210494062185 0.5670239882837231 0.6464982419429783 0.7416461628491867
        0.7869426152582996 0.732411637710936 0.5864606510073239 0.5186482808425512 0.5570248752914376 0.6441660404792304
        0.708649206609468 0.749696860157315 0.7500428243019686 0.7647070230989587 0.7927576986977902 0.7739654305198049
        0.7203397088351225 0.5946714230492622 0.48555326884990074 0.4572732126491229 0.46064377421580466 0.46848927107799754
        0.4955365410210505 0.5217518069783363 0.4849724165136997 0.41666183659034756 0.38733445405095496 0.4113436825065416
        0.4636748584718058 0.5116070399706673 0.5260972388440748 0.49094502963811804 0.4969009457590991 0.4795144504981549
        0.3878009537666286 0.35198306375357385 0.3432732458072048 0.3711473834309292 0.40241107266576415 0.3962997870734504
        0.37688474024307367 0.37639575875194964 0.3507069326904476 0.32374331674231 0.34458010164626207 0.40063638256627077
        0.44620073948596867 0.4137033823800446 0.36802682891326555 0.32547058160849923 0.32013238263770155 0.31623377189468366
        0.31493567086536184 0.36413306942660706 0.41377348654610024 0.41044768103704343 0.38542063433262563 0.3700883800391013
        0.3881454870902909 0.39638666494601626 0.38131137182033276 0.18672754188159138 0.18324414785224674 0.16270416745425492
        0.13267122772363946 0.12837317674548618 0.14133526646185218 0.14792957590114586 0.17715956048098444 0.22629298407562573
        0.25573630744755543 0.29243391831895965 0.3555179249398496 0.38998774049760304 0.40074502201691403 0.4373844838201991
        0.4867929061094057 0.5397919858067144 0.5304815632744866 0.5233870429443215 0.560442578184859 0.557706214370837
        0.5126249255882472 0.46328847184206834 0.4657077913854526 0.4870849280721472 0.5089617523654754 0.5344502479272223
        0.5839352147825002 0.6351953167825617 0.6334323396401944 0.5858755193798223 0.5585107496352265 0.5109460832464263
        0.49198438194226074 0.5161651938550748 0.5764031842761942 0.6913531674017906 0.8593546552168796 1.0277865492364235
        1.06018219464023 1.0743609411433077 1.0592397155087823 1.0074392305796613 0.9292307892475097 0.8325123833392343
        0.7074629985692494 0.6022978792379446 0.5813619925205347 0.5494037886147743 0.5198885019697055 0.5523346976341197
        0.5800142114256637 0.5440696823621292 0.4976473698373564 0.4809871177830221 0.4755053092841712 0.5181174756944026
        0.5583576854663873 0.5838788920414995 0.6349555710219718 0.7366656794939919 0.8158081371368131 0.7503938666393188
        0.7354223710916924 0.8508013563445883 0.9742777711943675 1.0504729478388162 1.0699273759793277 1.0691010681091624
        1.1044018004785514 1.1038482195306851 1.0476735287121013 1.0169516854642777 0.9381500571076697 0.8454554351674642
        0.8160719223958782 0.8434595652557138 0.8724191958246817 0.8279797999619302 0.7374286899865251 0.7124680718781317
        0.7601742744925231 0.8001620958484683 0.8326422844743451 0.8181697273781573 0.7135354000885018 0.5758854985137614
        0.45284456085865904 0.44497509138191327 0.5182203723255381 0.6001822781945747 0.5751939105378713 0.46711290174116893
        0.39762521345840723 0.3633265108767786 0.3529804189709147 0.33011462320163854 0.3126631490734955 0.28799708744687774
        0.25337860768621506 0.21413390980828684 0.20187432136099068 0.2361381454860325 0.29442070525654557 0.3120420292509608
        0.29050058318914956 0.2452305283849616 0.21145077651140126 0.2195030621348165 0.23082634382573503 0.22255239763692275
        0.22128432212439114 0.23328254841867646 0.23442255584096447 0.2270263825630173 0.21191086700571515 0.19276350319793342
        0.17700773378367124 0.18618397771916118 0.2033273833662596 0.21560433117483976 0.20676912971651082 0.18937506788672862
        0.1834906939394869 0.18347768170113432 0.18971927245604703 0.1807279711777415 0.15866252689306756 0.15879081182720278
        0.1833600701257647 0.20972052629084964 0.2458123659936344 0.2678183902388686 0.2694387026382779 0.2729260733603057
        0.2965876021026775 0.33080077764567906 0.3510125161353579 0.35290444635101087 0.3218880788210588 0.28602746779317445
        0.27211819680036653 0.29992606679495926 0.33665784326060394 0.3486726688765915 0.37730211235426536 0.44042477511770334
        0.4792787358963284 0.4736185561198457 0.44678899870663646 0.39748232823812185 0.3620666052642368 0.36036058866374143
        0.39246922657143835 0.4327115326032249 0.4795363718689267 0.52567789251394 0.5352173543279971 0.5604663471449284
        0.5697190578087143 0.5598792593464079 0.6259222014905456 0.6375700005547916 0.6247187695243598 0.6179648190463853
        0.6454889005858852 0.7368926407823483 0.8436144251446693 0.8545572477629355 0.8643635813095328 0.8228091191357156
        0.7465226194352437 0.8165893654671492 0.9398629471006487 0.9160903603829259 0.8851525354939094 0.9215685479639292
        0.9634696963548527 0.9662716448848977 1.0188168178942487 1.1098436001741194 1.0891933834150158 0.9596500565757828
        0.8480573936363393 0.8212496762630092 0.8665916650704755 0.9326628320312212 0.9895397689173135 0.988008851141908
        0.9591473254928893 0.9442070618090085 0.9324669486841953 0.9889608951132608 1.0841603529765715 1.1292190806404279
        1.1645795919828297 1.1778959049802393 1.1474774815993793 1.0554585052088603 1.015484384344921 1.0574151558933724
        1.065210289400441 1.107087091077488 1.1938864719129578 1.1776892549065383 1.037072207688159 0.9113009108172399
        0.8007966562717458 0.7202210159903536 0.7621449254736482 0.9368280902154997 1.1418023757267048 1.3456364141998125
        1.470798876671578 1.4356341656601364 1.3250622628680715 1.137885551645638 0.956446905198851 0.9027440734940824
        0.8833000916016307 0.8658863668016207 0.910403456825692 0.9724671765495807 1.0076044886053481 0.935872982979289
        0.8581754780669761 0.9557993020656802 1.0756918788880159 1.0215354553920635 0.9213488362149377 0.7476629615891656
        0.5953393767492197 0.5284898703649397 0.5492634793226076 0.6224724764482038 0.6980423320323773 0.765523986200988
        0.8102817567500236 0.7800357783498209 0.7231465563640193 0.6894631342409681 0.6213538613692807 0.5401183630031426
        0.47980734590961127 0.4229998163533232 0.3541782667904565 0.3475159219971624 0.40585310425103266 0.43257980367191845
        0.41819888782757775 0.4487650415373774 0.4890846665485478 0.5200196976078623 0.5339276246811129 0.5034083256239007
        0.43821361269793596 0.3996108684684236 0.3937427770984576 0.3869556762617137 0.3842323317384515 0.36415202067598956
        0.32575722119001926 0.28001344093587827 0.25243192025712213 0.2765970484551282 0.3667146621226375 0.4465522244453765
        0.4830024775426024 0.47788747653580205 0.4696901491246402 0.49231382181221095 0.5149572488483191 0.45605078778226005
        0.4112487567581263 0.4173351566577829 0.39681175652194794 0.3788605535063268 0.4242727558742739 0.5310872509376451
        0.6493751268747462 0.7245526721415748 0.7293110315562925 0.7151410428578207 0.7178631671349791 0.6836739411822428
        0.6220388617414215 0.5449075292312465 0.45869534770572773 0.3973804149697405 0.38394060442194644 0.4027056932763071
        0.46664628706609496 0.5219899220919967 0.5051890518530125 0.49282224369926 0.5065120333744066 0.5155779759542384
        0.5152804556823132 0.5100168490677055 0.5208305697158476 0.5340240386143112 0.22019135329892342 0.21324724592890407
        0.21282165821444998 0.2209959947573616 0.22264942406142274 0.2450665245546005 0.28386672985998457 0.31111228302831734
        0.3453375000286963 0.38745784619671814 0.4020256178237064 0.38737694452783744 0.41213717489998164 0.4820740038936181
        0.4897416075346168 0.4300570943306118 0.3730875060226503 0.37136869908608566 0.39675062067196537 0.41775063781866584
        0.4613383435399395 0.48482235539518886 0.5111086111940452 0.5192657742080423 0.5274101282052953 0.5804350544946922
        0.6119468500963776 0.6163909357432015 0.6370432670233827 0.6507333618440452 0.6633288039658839 0.694248583619543
        0.7320396823782634 0.7636926748948095 0.7516508313362994 0.7497617989180202 0.7825694887753786 0.7790267510197014
        0.6845488496348004 0.6453380364643876 0.5901025650676417 0.5128269372045825 0.4869301182264723 0.4611508080769432
        0.45576465300247243 0.44032546283939383 0.3674158450137251 0.31749437480131454 0.33602890767306404 0.3927792964453086
        0.4371632409736915 0.4622464985580898 0.5070534357167785 0.523544835174117 0.5511928662327752 0.6346708127156224
        0.747710164806043 0.8131954878844968 0.8148847930903413 0.8020371670355376 0.7864028874494031 0.7976573231027929
        0.8693791594411475 0.935144762140171 1.043173967241634 1.1048295401678214 1.11054587529462 1.1066221557859464
        1.1551642855289652 1.1675756415005885 1.1868392048194134 1.1643220830350138 1.0571937744052993 1.025069630727079
        1.0655615480450091 1.1064752297463687 1.049950657217898 0.931299903375497 0.8183641162027482 0.6745078122597186
        0.5464739004045159 0.5055631328523235 0.5435875307899628 0.5856580246817968 0.6424739214180056 0.7647761230968937
        0.9133902710129762 0.9682630860055801 0.8564849237956074 0.7229854574925996 0.6049743320299402 0.5377382984054231
        0.5166571866476886 0.48146387603363067 0.4373088908119545 0.39944215324456844 0.3603699611367958 0.32236712400079537
        0.31189366887641573 0.33224623215203425 0.3869351134062451 0.41514372949612466 0.3921276085772493 0.36248339287593
        0.33101577701425744 0.2878372949100903 0.26724244256370977 0.2583444731557185 0.2294813594841043 0.20766371267629102
        0.21199476805178152 0.22459962154708302 0.21735173294882598 0.19056153656276364 0.16138599361502518 0.13911897568036236
        0.13366712675031914 0.14770596910874503 0.16618291258770265 0.1640712451662643 0.14775198223758118 0.12896288088414118
        0.12301120663080871 0.1160835281860376 0.09959393700124078 0.08923580553490369 0.09580104951953666 0.11495111791748505
        0.14020002779047913 0.15855359701699415 0.17405205366148996 0.18237840046876144 0.17796593353482126 0.18436732417489832
        0.20728573106427461 0.23360157475128585 0.26115451950965574 0.28494426504685033 0.273353636771735 0.2694794153929977
        0.26373085318750905 0.25902213965971066 0.23732942514863448 0.19294705873467105 0.1717462747365362 0.17939381825832026
        0.19520124183429552 0.21977844504783633 0.25288032543531186 0.3078255055173936 0.4007214855129627 0.4828332616074594
        0.524629652378796 0.5621155359482205 0.571529286313012 0.5560304203396591 0.5153701721369827 0.5411265105611177
        0.5714317106079168 0.5143945580365332 0.45718079437526915 0.3929748919559914 0.3916884637749765 0.4258087155112383
        0.45760553419070504 0.5042319455091401 0.5268520662984728 0.5499053581198432 0.6207401675637473 0.7378386981308285
        0.8291899872492838 0.8881470258258568 0.8454575042492044 0.7904096810610073 0.8207679781750777 0.8136141731703966
        0.7412502982385747 0.6493255986754456 0.5635702218666742 0.5203926979485174 0.5280001535245475 0.5847214675788163
        0.6832599039824324 0.774452522126477 0.8259396833085911 0.8573982256835342 0.9454913805309595 0.9994830591368947
        0.9733304898801763 0.939717029225843 0.880868228803391 0.8851181374245538 1.0013476851866199 0.9754253204080852
        0.8632907357079465 0.7893330108670489 0.7726472141186207 0.7125030184156682 0.6467583216823687 0.6669517365398994
        0.6575965518026677 0.70574979753517 0.8205759847222183 0.9622457427395642 1.1249013566170945 1.2944756595376
        1.3850158478851546 1.3732504204564333 1.2768039303620164 1.1609466314207595 1.0963780970033308 1.0548321806409238
        1.0050553058138687 0.9600131358480075 0.9853454480626342 1.010084355049104 1.0222351692419647 1.095288071168168
        1.2088282366808927 1.3787735526497447 1.5061970332585446 1.5523719556469298 1.4730307106453624 1.2606618927709838
        1.1656147033341773 1.1119909617773638 0.990226843208304 0.8838842378529678 0.8747399062785951 0.794143218857775
        0.6969683529209744 0.642589093580176 0.5589863387690066 0.48550410550184586 0.42730470065213616 0.4403662198613439