<?xml version="1.0"?>
<VTKFile type="ImageData" version="0.1" byte_order="LittleEndian" header_type="UInt32" compressor="vtkZLibDataCompressor">
  <ImageData WholeExtent="0 301 0 100 0 0" Origin="0 0 0" Spacing="0.01 0.01 1" Direction="1 0 0 0 1 0 0 0 1">
  <Piece Extent="0 301 0 100 0 0">
    <PointData>
    </PointData>
    <CellData Scalars="qx normal score">
      <DataArray type="Float64" Name="qx normal score" format="ascii" RangeMin="-4.150171736074771" RangeMax="4.150171747224936">
        0.5936828549210309 0.5388360302793899 0.37721573323639473 0.23152070895483845 0.17886988828402484 0.11463108287621891
        0.065210194313663 0.09863438048864849 0.15556141934455706 0.11136248998461101 0.07639733467323728 -0.05378101614143068
        -0.2880319798255898 -0.4251451074787768 -0.5338357902027089 -0.6342053081424531 -0.6598726634237507 -0.6352239088166638
        -0.46097397654201366 -0.08049046924792459 0.2611371925255619 0.47267483536604227 0.6885133471612273 0.9275240996647747
        1.1964314378744374 1.3831747313872131 1.4196339175178159 1.4919422487329563 1.5675904418515736 1.633208042046168
        1.625669726072176 1.5244007299790194 1.4137277289362704 1.3315039206153114 1.3155090720365323 1.2984882792785484
        1.1474492090855632 1.0203942321933077 1.0658788624081064 1.1405597951793234 1.132141973547947 1.0623582277904735
        1.0688228485955578 1.165983139457072 1.235142677122559 1.2301581881832069 1.2101727175447161 1.2961699396145987
        1.4184942658431556 1.3683708837400619 1.1777315257684862 0.9116364404329327 0.6479099584781929 0.4239604125595705
        0.29567920032054346 0.2704544811255771 0.5666820290758575 0.8729487185736124 1.0208147966343204 1.1035217203187682
        0.9730437442582871 0.8576909784197144 0.7418590192508256 0.612260455697511 0.42405152179453154 0.19683905387410638
        -0.05361422247147352 -0.33356965604255157 -0.6297312518292139 -0.7414204675262414 -0.6956025945889154 -0.5903091759370366
        -0.37283788689721115 -0.16306771872355258 0.07472703914693175 0.2804015666676671 0.3358595992904861 0.4326316504273166
        0.5461684283226681 0.5846683132650892 0.43830832665362685 0.16416490384177929 0.06479293029420274 0.09436744468695335
        -0.0031228808333777546 -0.15589858990714628 -0.08299713134824825 0.22664773043122374 0.452839314478235 0.4297985432041728
        0.2719232117162928 0.30534990912808174 0.5368150875787312 0.829871755252326 1.0707414176094818 1.2202798545228248
        1.2705548914663152 1.2948207858208467 1.313138708142924 1.2574115441355327 1.0980270194998754 0.9976717871038625
        1.0250304139474353 1.1421571483686948 1.2155593585987983 1.146645316824865 0.9809623758639162 0.7982062164304418
        0.6675535684352389 0.5858543122585371 0.45062598364030637 0.27417064186280693 0.21828212311717618 0.21947626137015777
        0.21853798362570281 0.22118271666547595 0.07948794688261869 -0.06429222835494394 -0.11203287244533126 -0.07389196984843104
        0.020195969393232864 -0.03127549389112302 -0.16230824408376357 -0.33850403259212664 -0.40237422269532824 -0.25648708608189313
        -0.06888261548765202 -0.05027865609100835 -0.16315211059295365 -0.3073572963647775 -0.39867472950415067 -0.5298068618377721
        -0.6326786395241745 -0.5932856013586599 -0.6137678111882657 -0.646677741814345 -0.6095507142148641 -0.5941795536658853
        -0.6257761246823956 -0.6594585903871206 -0.760298108990182 -0.7899878163231069 -0.5818055364379735 -0.4809788065775542
        -0.4684886077494362 -0.41695549149554867 -0.5128259300752293 -0.6418609744511549 -0.6347145261612591 -0.5758976185562098
        -0.4718369292585688 -0.31680002025690357 -0.13174912976434497 0.07940440697207596 0.21052772645213913 0.3795416058850966
        0.6188024445295042 0.8344633467439111 0.9411825927258797 1.05637408219654 1.2255569448651737 1.4103426245012505
        1.5602351629954998 1.543302179442083 1.457843369698601 1.425130085854178 1.5078431153241934 1.6219349566515864
        1.5198916636391477 1.3232642732859647 1.1252140545632527 1.0701506691163407 1.213817883316635 1.386215653285436
        1.6002872062663551 1.8460584367288584 2.0638014573332586 2.0561564152471754 1.7928930102249574 1.6531239113318643
        1.6335241586175515 1.6405204021167201 1.734530943703627 1.8562219623236442 1.7817865087441953 1.7311673160576162
        1.7732976275131846 1.6898162032443773 1.5392054283431447 1.3734859409750235 1.253200108856902 1.0595803695142334
        0.8459605524019115 0.6686986832702015 0.5863487217251618 0.7192395162623815 0.9997286143185763 1.2917458234264465
        1.5698707542061547 1.852967317758156 1.9720434102428803 1.9091259400435956 1.783009741375781 1.6835992891415228
        1.7315400859981325 1.842864221965777 1.8953966883674962 2.06310145439729 2.1100912324759094 1.9685627621793498
        1.8276108688799626 1.5860663795844443 1.351781628996906 1.3433167358567206 1.4276636127029039 1.3792836714416707
        1.3584563100612919 1.4332233458841366 1.5310885538859023 1.610559589905842 1.575607532736456 1.4463712910153295
        1.3578279860579088 1.3586658706192336 1.3161028191902597 1.2317570087129563 1.151964775733452 1.0768182694282402
        1.0717761275977313 1.2528349464225859 1.4304379523295785 1.3857804509273395 1.2986817894709735 1.3060715136327392
        1.1576424783580601 0.9320147481838826 0.8575706849952094 0.7372613108866742 0.40635054765550815 0.0432757427616634
        -0.1066711967173784 -0.19115352270078953 -0.3848271959253903 -0.35388919228412724 -0.09922017678189865 0.22519543251852497
        0.6437039286796294 0.9957558824287585 1.1345162219322649 1.1720853509081548 1.1516414562237034 1.0458119982198684
        1.008690845339461 1.1007702156371968 1.2283854010493185 1.3031460138691293 1.3288815758341828 1.2875375889703073
        1.095747318601644 1.056228599827855 1.197113141468013 1.3086160192876675 1.274484692161682 1.0685280331891587
        0.8342274528870488 0.5911023770959373 0.36873456618461664 0.25915590709075004 0.16129575676392946 0.017114194559551373
        0.05528222706057694 0.06646205478921662 -0.12461220593568038 -0.19005108106767243 0.06228958050982122 0.27875624710695107
        0.19590517667417265 0.20814432444043757 0.09495299908208638 -0.20091617523379793 -0.4059887989056665 -0.5586820416679645
        -0.727352627191273 -0.7316992415262797 -0.5478125825268256 -0.3506992963665221 -0.12410866708060331 -0.0426922671722982
        -0.03052564578280154 0.003206157937182948 0.04094192681063755 0.06929999393774795 0.012366903225154085 -0.2038911792854382
        -0.46607364004577595 -0.633492679051877 -0.6874582206247791 -0.6504802426987024 -0.5970633046115521 -0.5036344597416076
        -0.43812498841497755 0.37587481209327844 0.41768231795068456 0.567073197461107 0.716760975764479 0.7773085630121075
        0.7698950907844141 0.6776818734378851 0.37694749481864803 0.03402509062412814 -0.2206707126707121 -0.39246101917103143
        -0.3648154525949146 -0.15370729627214968 -0.017947089426510694 0.038858351374929205 0.07138706874765062 0.09227644167799137
        -0.024860651654367093 -0.13662286330773452 -0.15109556338762303 -0.12326950551485581 0.02361113435423334 0.13032121967769875
        0.24574401373414967 0.4124177946385597 0.5345081197667906 0.6870363842801734 0.6754832798012487 0.6595620980450175
        0.6358353856607849 0.6527456524655754 0.8703917041342386 1.0274273698589118 0.971841175247441 0.8432243366168277
        0.6306453718660717 0.5926898964929288 0.6791494238663818 0.5018390656153462 0.2975936927637682 0.34229852452142523
        0.5821014643467562 0.8643263520752019 1.1735762866966248 1.4741846052268763 1.5955110246659194 1.5554712059813929
        1.5265334102730386 1.5713001051345075 1.727082634216009 1.988009573102027 2.1362651557180548 2.1218085234730717
        1.9964919725272676 1.7962266889009828 1.625981982110733 1.3402437479236098 1.119741534055028 0.9753191114531014
        0.7868061567628586 0.6395092557545554 0.4739789050609392 0.38895562862941957 0.3821382735651526 0.3914718327714413
        0.3326893748454575 0.18386469570985828 0.048360961075696825 0.09336371231266602 0.27365188162354404 0.493638562143793
        0.789191652659782 1.005924630035907 1.135309060712252 1.2246750603197665 1.264418840017218 1.4002830604063754
        1.5521295477549222 1.5934328423888853 1.5681597557586433 1.5367597248679343 1.4846325200607557 1.344343889160154
        1.0648506471553805 0.8843419895602255 0.751985463501136 0.7503291700093144 0.6886189019660076 0.5773727066005805
        0.6129637149372437 0.6631893330445264 0.6895692407703161 0.7836324421416377 0.9351049433074727 0.9831204252394377
        0.9145424294739862 0.7815963591980634 0.6112563245430456 0.5155822939073846 0.4359260757119384 0.4308948194272215
        0.49599160740383014 0.4795769506162561 0.2630332946998629 0.09219281000985467 0.18217103291167838 0.38303427309679366
        0.5007059657520215 0.5268386393204003 0.48969158208863756 0.5093148344905296 0.5281785506019019 0.4562558889103774
        0.3912920218740418 0.24917865275882853 0.00637070963841588 -0.08007274182222889 -0.07213849133226354 0.07172102933936758
        0.05586606476831278 -0.1706677152398824 -0.23075092867371716 -0.11211667378703176 0.025693684631610824 -0.01478215024701046
        -0.1869146217368213 -0.43785000866566687 -0.6010490621648304 -0.6349182594536682 -0.7244264168256013 -0.9037156859338045
        -0.8751449965981078 -0.7688874422647569 -0.7537544534379687 -0.6795689926463374 -0.7223709453494178 -0.854807352213843
        -0.8382439862260707 -0.616685995124478 -0.36250224767871086 -0.14621184787397792 0.01853012320687026 0.02619351293949624
        -0.0002914684081858188 -0.13494190478749515 -0.3816008211120999 -0.39039315698986016 -0.33691708975113865 -0.32758880000870694
        -0.2885528414326568 -0.2833477215084854 -0.35335729371109614 -0.4116019129936634 -0.3454791008925462 -0.1488216683622265
        -0.08182729176157036 -0.18208636352745652 -0.11253569231807976 0.20797412683569716 0.47444483953460764 0.6199121674934397
        0.7107445863864525 0.6740193632510902 0.7878279631530735 0.9922074367325378 1.1686165939199349 1.1750698357902227
        1.0008273200826048 0.9666462006278594 1.0012396463496864 1.0697078527152712 1.0489827744218778 0.88989625563093
        0.6852449415657506 0.43062070186986284 0.26277467977339947 0.3042158435094667 0.6410425833104463 1.1373737888886304
        1.3855629481395078 1.4909292672149346 1.5345934567336128 1.5133162948952523 1.3582468091438344 1.2888740974598805
        1.1612305041003554 0.8636006463617923 0.5418233570120273 0.5253084693109397 0.7454825332723547 0.8524097492379621
        0.9810971200851353 1.1242735162441007 1.2043048810904362 1.2701816470087552 1.3218664544877625 1.2890652152665851
        1.3094006509549068 1.436720800488946 1.433455964418789 1.4341542858333358 1.5776277091058133 1.82893972798879
        2.0715690598822287 2.0897026561050356 1.9934460591707746 2.0286721500593683 1.8964014768946562 1.7879295455541568
        1.7813793563703844 1.6720306799489453 1.7106656234699178 1.737537398169117 1.6610123645473087 1.6472743815776676
        1.8080545777029122 1.8999333980794995 1.8665809287390243 1.6250456890898561 1.2841113707395702 1.0765209150780686
        1.0859337458457337 1.0978748619077068 1.0711847243192472 1.2049930625587988 1.3274733211645173 1.369646290336732
        1.3670976991438575 1.4727051223677543 1.5937293043607719 1.6120846451001039 1.7677085819386538 1.86896339718336
        1.7142740574699808 1.5549130563489133 1.4588080723418644 1.248465964449029 1.1468060359904175 1.2406972570739416
        1.3168952045243858 1.2863938380196722 1.198649012139797 1.1704318054575666 1.0037171875237707 0.8417992492862978
        0.8679617320269735 0.9063496182396744 0.6760064579962147 0.4969335942571088 0.3876984504217088 0.31050178538526757
        0.3792731313931535 0.4065314419700666 0.20610234960444235 -0.05111249379424099 -0.0023733878038810045 0.2312641003067653
        0.6731834877847785 1.1003124412149008 1.1384875766619489 0.9487309372433221 0.805096284705731 0.7780973448215721
        0.9023385063669445 1.0871359225877393 1.2126010375435676 1.2053373673949082 1.010493031853153 0.7953465196423196
        0.5830882591779611 0.2780637069268398 0.24402778325824673 0.5146313821315096 0.7548612707974277 0.8351713071019504
        0.7501084864169284 0.7995811915208163 0.590904041957362 0.3209181419301552 0.24857737984132813 0.2601033509845818
        0.33471440826810417 0.5358535044684749 0.6212246433705327 0.5136809354749184 0.24935046155904933 -0.205421882673807
        -0.30229754564162586 -0.2642403972973023 -0.3082304594057452 -0.4742584533898916 -0.6291221307290155 -0.6595620980438205
        -0.57236250538612 -0.46505274145527026 -0.3278524128007312 -0.22545168578654362 -0.19318941112245686 -0.22357283776914913
        -0.31268726419566456 -0.36811069343448366 -0.9107535360126335 -0.8628753951760575 -0.7950037931604397 -0.8359977902810195
        -0.9878571956104367 -1.0931705224742139 -0.9456009501003262 -0.6455490718323681 -0.5510084135900964 -0.3903032878592204
        -0.25528241176985916 -0.20678291198055873 -0.24574401373379676 -0.277804038755425 -0.1484006614722631 0.184627015781365
        0.3941705194462732 0.698681927730529 0.825180534369397 0.584174389730165 0.3805262466218166 0.32653457624613724
        0.31015224663303637 0.20057628846467032 -0.0753116186282517 -0.2827409599750264 -0.372034571337038 -0.3384158467697464
        -0.38097393252341827 -0.227929566773374 0.12503184577984372 0.21342346748048469 0.3770369046100812 0.6427821786663026
        0.800728159850896 0.931372077226582 0.9385921215259123 0.7404342470769458 0.7865792002315727 1.0630906067934012
        1.2679458868045992 1.429743335386268 1.4778974986795723 1.4169018419924837 1.3472274904806998 1.5599539489386491
        1.962242833339255 2.0254232674867896 1.914303438499001 1.7285646375837027 1.441411587659822 1.2324686073044595
        1.3062669446896022 1.4856360458529794 1.5733066056833724 1.477649338164376 1.1376918699590648 0.7746078309389903
        0.6203158923956111 0.6515095598904511 0.6528487051873362 0.5682472237426922 0.619407653406636 0.6266879756193281
        0.43775835610770286 0.329610414773367 0.46375411644800557 0.6787299746072085 0.7220466762547405 0.6554272819442916
        0.7956893395706647 1.0383589140439937 1.2290940523938307 1.3908012159772645 1.4402359181799909 1.3747703347534415
        1.2459283589433607 1.0318135541433617 1.0642636007131137 1.2655309438189393 1.4212325341920904 1.4288182511890417
        1.2799441349797478 1.1394433772268637 1.0592884388131865 1.059434392877617 0.8858204546022451 0.8184103328070154
        0.8367066592087588 0.8444132188147714 0.956202178246419 1.0784554231564547 1.0622118203568283 0.8352893411927472
        0.5714798453169131 0.379452111349058 0.3115506294882671 0.2776309370487994 0.0733074520318051 0.02411093674136983
        0.06470947884634423 -0.0591192290548414 -0.29533122739620077 -0.568932434179491 -0.796603983596287 -0.9258609017034701
        -0.9369116875961989 -0.8358796863004518 -0.8394278948281726 -0.8303418816857961 -0.7879415479674531 -0.7483443306675005
        -0.752095956398579 -0.7019809721824203 -0.41169255297065965 -0.043275742761655175 0.18844023523287629 0.2060172860254543
        -0.15033751215047025 -0.401381137176019 -0.3874291348608879 -0.30761922064265335 -0.32275991016056593 -0.36187979352858113
        -0.3055244155860873 -0.36944773940671033 -0.3777522915284481 -0.27918915259975113 -0.2621713132524395 -0.24960818856213068
        -0.24359883812074992 -0.3609908164054775 -0.41323395090579895 -0.4285202066934632 -0.49693359425627903 -0.5210114371960628
        -0.5475223301664014 -0.5241616486250591 -0.48387897743828445 -0.4238693068430415 -0.2638092451174972 -0.19607495979691267
        -0.28542884045650063 -0.2694180814557874 -0.06721322094701786 0.01694761702932838 -0.19310456650782706 -0.4196822303419916
        -0.5645321499154882 -0.713105088640427 -0.7391204055737877 -0.5695199700815147 -0.36027984008805153 -0.35043363316288645
        -0.4586599128024778 -0.38169038886232093 -0.09411650271953927 0.02344453487537107 -0.023777734488458702 0.20874006357511515
        0.4997622067568948 0.5776678749219818 0.7452626479889425 0.9851477630835991 1.1431169607384135 1.132616312515834
        0.9633297665853651 0.8527690771171965 0.9254774503988333 0.9324005355966847 1.0128547011688231 1.1485759055966394
        1.127098123450743 1.1689463459281042 1.4327583413341598 1.5843111768511702 1.5881203113427158 1.6693409255473304
        1.8984168171011022 1.924284463960299 1.7665180856232026 1.6757489598188715 1.5537982080232164 1.5135780553557627
        1.5796543445491558 1.5898861721547497 1.5543553907001035 1.6126957183548385 1.636376581387243 1.5359465295230148
        1.5164642900003844 1.566453335844749 1.5321649816526408 1.5787849924133843 1.7649346415042164 1.7987401118044992
        1.787106570275017 1.8415010097204478 1.9179584561669378 1.9548734699895396 2.041886505113613 2.1070150034965316
        1.969720328259359 1.5499113681860375 1.2977147243047726 1.2666446150042066 1.0817384323098564 0.9546248577556512
        0.9516082793563138 1.0173155905801694 1.0271450687371257 1.0731081574749783 1.1896447572865938 1.208442562750334
        1.2067160178075114 1.2778688273168863 1.4751727226447602 1.581687488879457 1.673042463702224 1.7728965698214114
        1.8869322762581506 1.8566885200002203 1.7470352184234312 1.663000715065241 1.55185185752642 1.5060287217962216
        1.3762716663392693 1.2835417981311503 1.1727476672039618 0.825765942692044 0.6965575426662075 0.6683862923164317
        0.714394311191766 0.8483450289588484 1.000140487496814 1.048549775049801 0.9616094014125665 0.81678176273012
        0.7497775295059156 0.7090303422436167 0.6704701332653805 0.8112144567580694 1.0267217704704015 1.2790001304180985
        1.3943147080639569 1.2564941183008909 0.8675976781979019 0.6581136329985878 0.7805795320449824 1.0201139561380277
        1.1928615802526163 1.3000377245979025 1.301201860053959 1.3363693740395945 1.4065256067003429 1.3603445073311158
        1.2253804917103233 0.8900199954803489 0.5446223366960612 0.4451942219483561 0.46014062984837645 0.48650198869797323
        0.5791444724505159 0.6684904153856229 0.5431740572710261 0.2877715783316933 0.16146449314040787 0.26406793053578165
        0.4718369292593467 0.635223908817802 0.6846131926487549 0.5616046932601498 0.5837793534934838 0.5244482891157508
        0.1630677187237625 -0.002456664733619708 -0.04394259005907378 0.08976776971420157 0.2262205344978885 0.19981162788275364
        0.11127869570205393 0.11002187488622828 -0.008452684370118728 -0.13754755476805197 -0.03860833383687494 0.21904974758301649
        0.4071646768902082 0.2743435783331088 0.07372496219060326 -0.12738223797735163 -0.15657298424524047 -0.17734694243641255
        -0.18394939265534452 0.05411460797466318 0.2749489206340921 0.25984493407506126 0.1518537014607333 0.08433423006616296
        0.16509344557876726 0.2002364248648668 0.13233717066279774 -0.9272680561084875 -0.9530499087431775 -1.120989436745822
        -1.3859980192882981 -1.424900218424377 -1.2996500707078553 -1.2464714559865169 -1.002477647757046 -0.6590446303880774
        -0.4863145199186352 -0.29602720905004987 0.011034384925615775 0.17337229082762395 0.2199028150868457 0.3728378868977951
        0.5485868145928431 0.7258345570875211 0.6969821679611415 0.6737058547930019 0.7910121917475782 0.7823877837877304
        0.6375691963275216 0.4702551205178077 0.47808267559985984 0.5493613756400031 0.6255735618096067 0.7097800673941693
        0.859617364243684 0.9938436259101259 0.989214634949045 0.8657791309041188 0.7845384112180392 0.6325769140676656
        0.5650205293915505 0.6500687087775436 0.8368248449071338 1.1487369812985417 1.5501882237169051 1.8908986570512
        1.9605327427748094 1.9820371486190802 1.9588283664628 1.8474331710512886 1.6856643603235661 1.4937186591900744
        1.1901518581452148 0.9091157370272827 0.8528888775469442 0.7563015174386791 0.6618410581038832 0.7656458701526035
        0.8472714183761946 0.7396676843607433 0.586447620816246 0.5295194108272755 0.5095992835484024 0.656666547393986
        0.784085346234643 0.8592559240447277 0.9934343292849571 1.2653454844956584 1.4585667694074027 1.3029513768097147
        1.2627536105298256 1.530819723962635 1.7821939567046612 1.9377166020736931 1.9767217605855558 1.9743771837862496
        2.0312867605333516 2.0299777206340055 1.9312256806552803 1.8699193621455945 1.7067219029251184 1.516727302100979
        1.4590494602484112 1.512793084821779 1.5738810565519776 1.4863896731990458 1.2670161880432589 1.2032736770147967
        1.3234641728524073 1.4253600286064418 1.4942270717628603 1.463652074099761 1.2068885104342844 0.8349352738199163
        0.4294332326184073 0.4024645228635737 0.657183205682791 0.9033399216014556 0.8329308654521226 0.4828494198936922
        0.20559199047730622 0.05069557053665938 0.00154061931641478 -0.10767627271437236 -0.1948865963392357 -0.31697514958048173
        -0.49976220675605904 -0.7351865098844398 -0.8189924911954193 -0.6006500575022182 -0.2851686331577297 -0.19802787329773763
        -0.30500092409891144 -0.5501362664130865 -0.753090806062678 -0.7015548602305762 -0.6336962545219001 -0.6818787637568613
        -0.6897805117415482 -0.6189032969300857 -0.6112563245419641 -0.6550144171398634 -0.7507706468595748 -0.8836034815003985
        -1.003717187521505 -0.9316290994327845 -0.8089021561983523 -0.7262681205909042 -0.7845384112165104 -0.9089898534930418
        -0.9500378449544474 -0.950299421259101 -0.905220021140421 -0.9726427316304722 -1.156503954332871 -1.1560164740875265
        -0.9518702466403126 -0.7635264375503976 -0.5453952195443672 -0.424142634548952 -0.41622888524224955 -0.39714239498839243
        -0.27477595541918104 -0.10374033669321119 -0.007036938116111967 0.0009576820453054132 -0.14646436734345164 -0.32556852319116647
        -0.40147140130741626 -0.25898366957979135 -0.07698198822677271 -0.018946579752139866 0.11379286677053178 0.3841098786637237
        0.5235884967901814 0.503256347290557 0.40924645756354266 0.20499663915944627 0.04394259005908313 0.034858351590780275
        0.18250972351393846 0.3541551791118524 0.524639406715924 0.6828247189359005 0.712675611151524 0.7912399434586892
        0.8185267422915341 0.7881687481037518 0.970239932738298 1.001377126271419 0.9671778171565975 0.949384188405461
        1.0236231868825463 1.265901993107412 1.5138399195655377 1.5378455686558494 1.558549725689433 1.4769054020852577
        1.2907873984787355 1.4597741345404611 1.7088697279976062 1.6649956621442796 1.6029899312434799 1.6740559630646779
        1.7582538933811234 1.762567740586218 1.873278767105151 2.04054894758736 2.005120502703005 1.7501080684850905
        1.5241346319906768 1.472458855076905 1.5624893302839142 1.6946971302114253 1.8144964492571447 1.8097650761653963
        1.7481856033567331 1.7164498778672648 1.6939973809352014 1.8132020456727 1.995271385155965 2.0652045046889853
        2.121018260364328 2.1420098299211454 2.094905408449885 1.9503907115102623 1.865156517608754 1.9571296614239473
        1.9679849669084242 2.0365580310988953 2.165724758784897 2.1411848260353947 1.9111907945067996 1.6570552486403256
        1.4272022898050682 1.225204076700324 1.3284789484877981 1.702804549636652 2.0867548647882086 2.397405756851643
        2.571261086093007 2.5262652871188758 2.362079238344431 2.079463700819721 1.7409385403802837 1.6379670311699277
        1.5999876241649007 1.560797961558889 1.654758861188541 1.7769200480381877 1.848351603975117 1.7003252290605415
        1.546598329134906 1.738291471081545 1.9844176293813804 1.8795743412025154 1.6737179388972523 1.2952060177908118
        0.8915059381448409 0.6920007196157211 0.7557473909132043 0.9598918775753873 1.165161841340121 1.3382020998996642
        1.4449506040590865 1.376057000458809 1.2321127300201988 1.141038695456095 0.9568600976674201 0.7270271854358343
        0.5254996732383304 0.31382430302047165 0.006703823505292543 -0.024360840185790218 0.23999745972147535 0.35371188164298095
        0.2959402035084802 0.41586566453017704 0.5546954483375373 0.6626706232120883 0.7079599970782223 0.6061447991733109
        0.3773051520731115 0.21410507757313074 0.18776213085339646 0.15935561723397812 0.14579100280121796 0.05428140614724734
        -0.12612301261317177 -0.35868080837953514 -0.505810006444569 -0.37712631741509867 0.0672132209470661 0.4081600904185377
        0.5361419273400463 0.5176759435255001 0.49016105962882706 0.5662909473809457 0.6464724678497829 0.44124374809730976
        0.2638092451178821 0.29081081526119157 0.20159601845141162 0.12033311956420055 0.3185517517694553 0.6987882297194682
        1.0342273300946159 1.2358572557765692 1.2479215152017373 1.211212551599172 1.2190534130941055 1.1269409649010178
        0.958836345838203 0.7421880266977218 0.4504416391605753 0.20431632660015459 0.14461277370902614 0.22707496773095318
        0.48107229722837047 0.6694278494259779 0.6123609027577226 0.5680514983399864 0.6168874426152572 0.6482181663444835
        0.6473964154167625 0.629325145151012 0.6652659599942456 0.7081740011965971 -0.6971945277382732 -0.7408724783114782
        -0.7441637615302239 -0.6915775601415516 -0.6811434424959479 -0.5513961690910851 -0.3375341331500702 -0.20202096776232792
        -0.03535831975142846 0.16197072987408564 0.2246829703236376 0.1617176063267115 0.26743245632459234 0.5332596997317162
        0.5572225050612205 0.3433583303575399 0.09737921642275103 0.09085479061009537 0.20142604892399418 0.29263564583734075
        0.46301239614555956 0.5424021073716154 0.6331873650627884 0.6607011491422972 0.6889356124276584 0.8491807359084887
        0.9327864618303976 0.9449500348629899 1.0000031775885065 1.0370748037849056 1.0729600601380367 1.1563414303880577
        1.2546624324429045 1.332514956883898 1.305876132446326 1.300425573946553 1.381875386069869 1.3732720955154492
        1.1289862017351466 1.0230608633015554 0.8779575104831384 0.6388963456792244 0.5489740539471547 0.46264163152014626
        0.4399590348500374 0.38339275898849057 0.0706356864685267 -0.17032973145740193 -0.08040692264148797 0.18361061278374533
        0.3718560893856807 0.46625931014103883 0.6191050206225177 0.6746465790112816 0.7619669426467304 0.9927525378228707
        1.295398705876202 1.4530400855996262 1.456398854589299 1.4295119496351036 1.3918973370296115 1.4189499053721593
        1.5670216355763298 1.6989131540464266 1.9237543489693736 2.0325992904999244 2.0412172698680218 2.035896022308017
        2.108550623788609 2.128178832777142 2.1588244693025835 2.12022931964893 1.9560003211044048 1.8859453045523877
        1.96914121539828 2.0352349045593545 1.9360862126829526 1.6915547676965605 1.4643816428340957 1.1055141256213388
        0.7475732446198731 0.6140694495968491 0.73769851550356 0.8651735844867846 1.0160589217618214 1.3369797837461597
        1.661343300390028 1.7669146395264235 1.5424807566644574 1.2315792064939421 0.9155550200709068 0.7197789140526569
        0.6517155061520238 0.5313406742616484 0.37239157080550744 0.21359386069573028 0.03502500666999402 -0.14393959017066044
        -0.19862238787280612 -0.09553858603584651 0.15910259992882292 0.2815277488774591 0.18140905539373584 0.04669354499607268
        -0.10256824356200578 -0.31811372745218947 -0.4276075378510283 -0.4743516444019982 -0.6405313068225799 -0.7766328490466721
        -0.7501084864154962 -0.6691153060828243 -0.7163303747844862 -0.9002134975371587 -1.133882463996952 -1.3212681791906977
        -1.3769160448019768 -1.2482844402483961 -1.0913559688803285 -1.1082801074394324 -1.2475587544432396 -1.4210039379804655
        -1.4876475980268498 -1.560516500485992 -1.7504933386756412 -1.90297973650791 -1.8080545776932622 -1.5758957357731436
        -1.310775699401858 -1.1573170326927704 -1.0285573940795776 -0.9602879777949478 -0.9950725159619557 -0.9444295907929829
        -0.7805795320434653 -0.6168874426141627 -0.4612518299003141 -0.3317213631666485 -0.3934505897395591 -0.4160472680247777
        -0.44869112874806694 -0.47072023607552466 -0.5930870096863841 -0.882619553064198 -1.0484054856032015 -0.9836606533483588
        -0.8661426111824916 -0.7000644702291945 -0.5031618304199811 -0.22007344777254692 0.21956156891640913 0.5351806910289766
        0.6782058308950426 0.7952322671036035 0.8223745006558358 0.7779846320734162 0.6480126875938487 0.7298502458127649
        0.8220242017462787 0.6444212236154365 0.4447345085707566 0.18445760206418302 0.18030860700141194 0.3246027738813216
        0.44657392725450007 0.6090494016253964 0.6872472871665048 0.7575214140913548 0.9556761405687132 1.268131958115838
        1.4894126573951256 1.6093422371897 1.5172536412903261 1.4009492962655974 1.4714746778049803 1.4547174187018084
        1.277303788569741 1.0340851764867478 0.8003839588013737 0.664123460737081 0.690837328870842 0.8615469453702986
        1.1259985975349998 1.361185265035434 1.4823800371486828 1.5441246448623682 1.7193636719968919 1.8329458034393242
        1.7801596678156608 1.7085112095239374 1.5943226488790432 1.6026890499386655 1.8356329527086643 1.7850544107840933
        1.5565889612605617 1.398952450131384 1.3574094010170041 1.2034454554987415 1.027709752884174 1.082635824144117
        1.0568106635127514 1.1866085551511565 1.4700010788478477 1.7547485616808098 2.059616517058793 2.3146657921442317
        2.4593143875510646 2.442529994393129 2.2945173900154816 2.1170866829826203 2.0177120180339583 1.9481639502047627
        1.8419550335445778 1.750493338684261 1.8025316864869467 1.8548247083328149 1.8820156775613175 2.0151680575589244
        2.195335573727363 2.4508358906217054 2.6247564622744193 2.699540921462795 2.575829303604297 2.270848575960678