<?xml version="1.0"?>
<VTKFile type="ImageData" version="0.1" byte_order="LittleEndian" header_type="UInt32" compressor="vtkZLibDataCompressor">
  <ImageData WholeExtent="0 300 0 101 0 0" Origin="0 0 0" Spacing="0.01 0.01 1" Direction="1 0 0 0 1 0 0 0 1">
  <Piece Extent="0 300 0 101 0 0">
    <PointData>
    </PointData>
    <CellData Scalars="qy">
      <DataArray type="Float64" Name="qy" format="ascii" RangeMin="-0.35926370998275764" RangeMax="0.46383703919587055">
        0 0 0 0 0 0
        0 0 0 0 0 0
        0 0 0 0 0 0
        0 0 0 0 0 0
        0 0 0 0 0 0
        0 0 0 0 0 0
        0 0 0 0 0 0
        0 0 0 0 0 0
        0 0 0 0 0 0
        0 0 0 0 0 0
        0 0 0 0 0 0
        0 0 0 0 0 0
        0 0 0 0 0 0
        0 0 0 0 0 0
        0 0 0 0 0 0
        0 0 0 0 0 0
        0 0 0 0 0 0
        0 0 0 0 0 0
        0 0 0 0 0 0
        0 0 0 0 0 0
        0 0 0 0 0 0
        0 0 0 0 0 0
        0 0 0 0 0 0
        0 0 0 0 0 0
        0 0 0 0 0 0
        0 0 0 0 0 0
        0 0 0 0 0 0
        0 0 0 0 0 0
        0 0 0 0 0 0
        0 0 0 0 0 0
        0 0 0 0 0 0
        0 0 0 0 0 0
        0 0 0 0 0 0
        0 0 0 0 0 0
        0 0 0 0 0 0
        0 0 0 0 0 0
        0 0 0 0 0 0
        0 0 0 0 0 0
        0 0 0 0 0 0
        0 0 0 0 0 0
        0 0 0 0 0 0
        0 0 0 0 0 0
        0 0 0 0 0 0
        0 0 0 0 0 0
        0 0 0 0 0 0
        0 0 0 0 0 0
        0 0 0 0 0 0
        0 0 0 0 0 0
        0 0 0 0 0 0
        0 0 0 0 0 0
        0.015822217049323673 0.04572910201086887 0.034448511644471984 0.012391406590189434 0.013807507556801409 0.011227192744464272
        -0.007091382738022707 -0.012775088601042664 0.009314155186249834 0.00832878766475719 0.026989590758669954 0.04750656336462702
        0.02625740382904663 0.02017805019810035 0.01684585867237475 0.004548396499303427 -0.004349054334050412 -0.030801802618921188
        -0.07463609133461871 -0.0747470092771879 -0.05326225764130275 -0.06328243955356208 -0.082808132463394 -0.09978099261538786
        -0.07292511931827844 -0.014707859382328412 -0.03187362148286621 -0.039349171773785184 -0.030929814304624204 0.006013632220142467
        0.047630875001732645 0.052626479719126935 0.03202368129358358 0.0063359912225500045 0.007825296847630456 0.05791939116301647
        0.04657531074722185 -0.01654541223847161 -0.028476748568064137 0.0036197324960928986 0.025938808393059152 -0.0023188364389113147
        -0.03641952043250563 -0.02595920999661884 0.0019041436726960608 0.007515677387677118 -0.03336914887352368 -0.04924583503379072
        0.02050947108899798 0.07435017586800835 0.09925845623588808 0.08779597077298239 0.06434087708023101 0.032835953740381923
        0.005288116457638066 -0.07960101579786763 -0.09570006294546186 -0.056316948621054116 -0.02947200802269341 0.04690935171927916
        0.04358850665776544 0.03851758738263051 0.03965545870543716 0.05413504498270682 0.05548210944260218 0.05393708245659569
        0.05685895982984342 0.05331875254550775 0.018198603183897412 -0.007331245988304655 -0.01735602817213918 -0.03952336911840297
        -0.041541177861627664 -0.04939792711733868 -0.04671916179701814 -0.013510271371049995 -0.02556609540359226 -0.032109276102556254
        -0.011090883310302653 0.04170385475979989 0.06738730855207467 0.02172157559897768 -0.005928849397438638 0.020201253150380283
        0.031587295826156984 -0.015128237957254088 -0.06713888739287112 -0.056885012107298676 0.006369459646766262 0.03968406768267811
        -0.007456255042646735 -0.06264160639255954 -0.09114462049839732 -0.08818398673987969 -0.055937482138686614 -0.020156059904653884
        -0.00900021358790422 -0.00853976486055984 0.022967868618659255 0.060790886603786155 0.03556840746270238 -0.009523943123700137
        -0.04400056470988795 -0.02744852017586476 0.025957252824769027 0.060353146864621655 0.0672288132754394 0.0416117172318372
        0.023866892041810184 0.03870708453096009 0.04508079862806188 0.013150190019141283 -0.0002590078866727378 0.00015815754011813975
        -0.0005801286625856724 0.03193615656539807 0.029778176690468203 0.010266652366235389 -0.008259019219175434 -0.019984840317278756
        0.011114250602796997 0.027166620879479596 0.03527429820097067 0.011750816941496238 -0.028602798786033112 -0.03783025392248564
        -0.003844830744143799 0.023291217474018033 0.028807362073920574 0.017372972211627126 0.024558518157422028 0.017123366185229697
        -0.006349028055442253 0.0031203945761553663 0.00581105074557574 -0.006288142944787495 -0.0024872242694583277 0.005065267818459015
        0.005773832669745896 0.015913624075146737 0.004212469976667982 -0.033244977646263114 -0.017689342732035786 -0.002746969138396337
        -0.009598434150498622 0.01803343702734046 0.02195729707271773 -0.0013808306020634403 -0.009710843659679527 -0.018648439173219178
        -0.02912125681940992 -0.03676902161852148 -0.044389270055568676 -0.029669199098232027 -0.040129646090541635 -0.06815285091083294
        -0.06867397283813018 -0.03942506965442162 -0.042431696587150035 -0.06298241374715696 -0.07390672328025948 -0.07161441794586852
        0.008973722975348285 0.04127020710544377 0.01536751291073567 -0.039932424554339166 -0.05361973927784851 0.04709313033912954
        0.08624795254314067 0.07700885888546286 0.020832207300527893 -0.05415667688303759 -0.06739141592165425 -0.09985463450329736
        -0.12339760153012463 -0.12087856070295785 0.00494888046716207 0.14356094064154556 0.06949660283567757 0.008591430792251713
        -0.0025176760799376515 -0.05078352155511417 -0.0568731122136547 0.036863302309383575 0.021505914095019285 -0.0172462654132894
        0.03962491001186631 0.07523338986425013 0.07585982223584117 0.0474705932075957 0.07292561055018518 0.07920740146618957
        0.057519672717676947 0.024204834861643643 -0.03991189654906097 -0.09934422139141888 -0.10982533475262968 -0.12385730301004691
        -0.13854018680138588 -0.05982424463890019 0.03227352535734599 0.06145121186910661 0.04685014902195878 -0.024695616750820906
        -0.05253134207190341 -0.02417362260496959 -0.09825635981038247 -0.02818924530436069 0.0902202601111635 0.06932958733094324
        0.1180892194616138 0.1077730752539979 0.003418303515770227 -0.034746397113499985 0.01988347352717862 0.007986338291972525
        -0.030117240277666154 -0.04792776449788132 -0.037596195677974585 0.015918412224306865 0.06204837672988154 0.03773195577156244
        -0.0004223491592326189 0.016164323733328514 0.0339521537077933 0.030335806047607636 0.02784514232191339 0.0020128165457462635
        -0.06872720220084617 -0.07082399567799207 0.018530481062342914 0.03459059883492351 -0.0028413065657349446 0.05679751641148072
        0.08302322153218641 0.028423348042258684 0.03983482508672349 0.09738070827760002 0.08401811036029339 0.03163726623076625
        0.016818566746577765 0.03842737652913579 -0.005742686278354145 -0.05087953388178222 -0.07049830715452537 -0.11211905346733662
        -0.12143274554877787 -0.050904978370211004 -0.01410202308373494 0.007968443847649971 0.03872808713906117 0.013750239367859487
        -0.03272563104706845 -0.04895487044906987 -0.028816513596788097 -0.0117305025037607 0.017502924637746418 0.07332360749451435
        0.013921882717838514 -0.05278178860356507 -0.0431056536469717 0.013050493321168855 0.07823393885655817 0.08624361090044531
        0.07661364845860885 0.06253641589925926 0.026117750445484113 0.02296924378916555 0.030549108692668966 -0.007578079901961379
        -0.0022613222988671347 0.040460423318185605 0.01236413903736313 -0.052092843174050565 -0.04861480524335141 0.019110715981113652
        -0.0030091122094298823 0.0259328479388871 0.06101504663751452 0.04039582551910951 0.02709781833699838 0.028544545041453026
        0.0007783603324852359 -0.031014121058599943 -0.03592260436840382 -0.044752326961520275 -0.017465590807216252 -0.0026245206149331456
        -0.007214374282116667 -0.008175922703722117 -0.0054273559831333525 0.011183417822135663 0.04505376536953002 0.05073282623802916
        0.029245414009627126 0.009287613976784384 -0.006240815618376115 -0.008962130725109397 -0.016027028629994437 -0.012775889995542453
        0.004600534948307057 0.002345599825823724 -0.009810217981987002 -0.00635652189430679 0.01608869604776578 0.03989124543459778
        0.07936350219552965 0.06520227077171577 0.061757730485708526 0.04246037966093383 0.021509934492467433 0.005923541458744235
        -0.0018156128201182503 0.007686521730945261 0.010534530842544954 0.0005813563154440192 0.019772341433686533 -0.007260342242096635
        -0.07185706759562313 -0.0799601115505979 -0.08496533425320098 -0.08625428032423592 -0.10885835271944133 -0.14086652685544204
        -0.10798186365057229 -0.05955118303009023 -0.029444102412549626 -0.035085036884446176 -0.024709604813241696 0.0002844930483303165
        -0.02285236162242445 -0.00686698425072845 0.051914174646371235 0.05433564014100911 0.07590677789939028 0.06886357721452585
        0.021082897706024072 0.03498960183374142 0.026081244627644978 -0.007638498814885156 -0.040452757333407294 -0.09177427980250245
        -0.15191481724803332 -0.14670514937096718 -0.058222781721244364 0.026632586334518555 -0.019689882124044097 -0.0718374691508026
        -0.05840760021573067 -0.05485111443646924 0.005757655623336525 0.09613701090167456 0.14305170887804727 0.13718217580572856
        0.09097818174341585 0.050357737368069616 -0.010777087773977184 -0.0036559529143734507 0.03953497089767779 0.09306521537035176
        0.09213611635756193 0.06130700841361758 0.041473999636765936 0.051802389818475694 0.06999143319684688 0.08872218936706892
        0.08681625871131492 0.044264402018027324 -0.023390090391849454 -0.06456771790998009 -0.10666193261183925 -0.11887402357728463
        -0.08909307425284976 -0.08269055179934208 -0.06288563482182592 -0.06760335439775314 -0.09621525102728341 -0.05199622561824985
        -0.0006148258569845679 0.057523758296383426 0.0942120698999277 0.08176530638164926 0.10074814210669786 0.08811719187158952
        0.07638100765152828 -0.014747598618435982 -0.04735292578524887 -0.024786055484009587 -0.003951727592497311 0.02478747230554546
        -0.014988263409191484 -0.09337080595083416 -0.14557807150772467 -0.10745143707912248 -0.029019994767807776 0.026941961496398898
        0.043374671876184115 0.019049057091061673 0.04497032941479244 0.062418341223581274 0.017478005668686295 -0.0043960522477367835
        0.01108170536464336 0.01200274996688686 0.005199565268901715 0.012470643295677758 0.03459799587483627 0.03420011253758446
        0.034480081241603656 0.032729319161553895 0.039970447505128334 0.03367665900996582 0.01753879907489602 0.03450271539753955
        0.05311881062748588 0.049840146326263844 0.02815289419345259 -0.019751838255616147 -0.005044784473611373 0.027036361952179937
        0.022899043519465086 0.003763908472919953 0.005827823853313904 0.02072698178552704 0.006494469765802385 0.010857706073226251
        0.025686723732439343 0.028799691796786854 0.04334927060177704 0.04343274165511733 0.02056637577885445 0.001977983755898567
        -0.00876686788397743 -0.0083715034924105 0.01216740806648849 0.0135026181406231 -0.00513012396861564 -0.029374286339368293
        -0.03995566418269079 -0.026677915050158627 -0.030849553578214544 -0.0349066225597434 -0.011725276178655434 0.02567702265261301
        0.038707549376100214 0.019697800160508695 0.012012829911385501 -0.0031052751112535673 -0.01798922298707254 -0.01962472571504585
        -0.015182869467346616 -0.026027137658580952 -0.05666373537256235 -0.06879508996228031 -0.05440251819358163 -0.047824104453823235
        -0.08229748429102797 -0.10888204144444695 -0.10874703819809273 -0.10571732760973769 -0.10150533575729402 -0.0603655583361753
        -0.02738305079291 -0.03338853493008134 -0.04976893666452647 -0.04211791860536591 0.010421829518433364 0.059769398803721945
        0.07332759462870413 0.05240163208339602 0.027692662570074304 0.0064132173467324124 0.0007296410764633808 -0.026803371837897074
        -0.08118732512385589 -0.13020487467961614 -0.08836550496832131 -0.030999977053081964 -0.02605485926253661 -0.037735558185715834
        -0.026505428596843426 -0.040664255811432196 0.013433404816907876 0.06408492722506182 0.07076959236504346 0.09385899356458847
        0.14036603322425512 0.08009766402292347 0.009740529137422724 0.012076875271175541 0.023566420635560505 0.027021309760421382
        0.02717942455940293 -0.0012767604280414977 -0.06108573620530097 -0.08576349299269163 -0.11736797955900709 -0.17662526633684966
        -0.13619135833773052 -0.060386452067064146 -0.037348988166663155 -0.06166552172596566 -0.08922328883428787 -0.03563966440868515
        0.007454803649497104 -0.0444877651562666 -0.024925176717977365 0.025077451510703563 0.09301854281084043 0.12324607494142513
        0.09673389720155368 0.09359280545513361 0.045416498325460554 -0.02881069063544839 -0.059957003663471176 -0.03677469377443621
        -0.014125845022889702 0.07244443603939349 0.11423586379110359 0.09440481561664558 0.05885855895804402 0.033661055413165705
        0.008692014437493886 -0.03436567297647971 -0.014781736850092512 0.014294842770868852 0.028975672372973462 -0.04311955746757572
        -0.12804807595371426 -0.08053480854579456 -0.059970780707043 -0.013409930933730932 0.07064958756497619 0.13686257681546515
        0.12965549129395337 0.1147444863337228 0.07860478321545152 0.06218026682667279 0.05265966712984738 0.044669522385748055
        0.050337805193276686 0.0488344414468178 0.05588815330852238 0.009445927685348297 -0.07888422027452681 -0.12705026122091184
        -0.04419046348677789 0.0014080082492402516 0.016347990816162235 0.026948686603060375 0.022052984325643007 0.006464381231666156
        0.015621837893634662 0.006611742388022359 -0.038782656461686875 -0.06346207585475604 -0.10211118720779122 -0.07610614317300264
        -0.0021240220327293315 0.018184964599930773 0.009421821417132412 0.02203532773397186 0.03439605219182916 0.017980809093116345
        0.02882542465588936 0.06509132132290656 0.09881521068266018 0.10132261733120057 0.09609565614907295 0.07465283648109232
        0.005579226330418361 -0.02995790578798743 -0.05955397314225754 -0.07917799933743302 -0.01985797554092134 0.002932485663268523
        0.06133371800527782 0.09993574603761056 0.07823470434980306 0.03757484189065958 0.009420080417754382 -0.026232289812117907
        -0.024010466664630255 0.00003170285898686607 0.03285272583972592 0.052571717608306735 0.0018411002008861838 -0.010241001152482419
        0.001712590676451898 0.023305933607446677 0.021401123049033133 0.0165020639500099 0.030109048839619245 0.031660145918670224
        0.0038903790296849353 -0.011984049120185991 -0.012298839740479333 -0.0032515334429383137 0.0023674419772033322 -0.0021884909440533303
        -0.0019788134436527238 -0.007131288840237743 -0.00413851327390136 0.014453153346074086 0.028927823797704096 0.021666828563238594
        0.03497115972538625 0.04858257403644003 0.03282382036409183 0.015864220570461468 0.01194851475588235 0.013383883645725412
        0.005121441815829819 -0.018062816407245826 -0.06096432718276496 -0.04943579615185245 -0.06833974886013856 -0.04875657505298912
        0.003814927460061859 -0.022189993562281605 -0.0719879090678353 -0.08211197283173098 -0.08318769384470623 -0.08134657954062752
        -0.06584749238052257 -0.04202376487926207 -0.03544380342985016 -0.026939598398169114 -0.05522700015542083 -0.07335980499562086
        -0.042497345372150275 -0.045700252221867306 -0.023907866956868713 0.004308170744598307 0.028006406093364664 0.06604129295629593
        0.09103401330626239 0.020063348259969978 -0.07461049886472608 -0.08561010821559725 -0.10487163311012936 -0.11283397966885213
        -0.12540689676662214 -0.11805769740595978 -0.1561679335110851 -0.16818005913220518 -0.059585672634557774 -0.009706407146379405
        0.02827977790880868 0.08825882651266066 0.0906338287756257 0.06786378807755568 0.06695663303562492 0.09301113943579022
        0.1397693034890118 0.18509098767314713 0.12292892311150501 0.04363041362894126 0.03023337056004385 0.09266847020900336
        0.11636765797842956 0.04700248621577934 0.039400999828600416 0.10573052818995263 0.09821191978595713 0.054227754192995206
        0.023677638341998722 0.030544896982917995 -0.0027831456309497346 -0.10911875752309659 -0.19549099884273455 -0.1897006384762357
        -0.15338621507970698 -0.10446814199216269 -0.03485577747752969 -0.016536774850686276 -0.01618017531342121 -0.06387076047015547
        -0.07715927310385857 -0.004823293727690731 0.09117945623575761 0.14173694167773881 0.15367196732822802 0.11836400545177399
        0.07631121667286916 0.050747995672099616 -0.024207918977383988 -0.03154472911375202 -0.006473407045423863 -0.017273960907926666
        -0.05937033313662305 -0.08800472924633584 -0.061978783949196786 -0.025213849506249105 0.02558394844010272 0.04336766385895042
        0.05145636808263466 0.06526651197586007 0.05475530119822597 0.05425670263432871 0.043178893488813215 0.043258626427592164
        0.06204610789883773 0.0486027823400061 0.02329264574172936 0.013770792776834215 0.0205273900049917 0.03469144944892677
        0.03323760887842042 0.02668161174449802 0.034081859853308354 0.03414071434837575 0.009761697188829396 -0.01614989211232683
        -0.020240299190176846 -0.0006557676735523782 0.02433774065240247 0.05664771993874133 0.04407964910490287 0.024581454480244076
        0.007497464128648953 0.006920345497154532 0.013051733631049053 0.00982704679560853 0.018858423236285213 0.012382814798794297
        0.0065854733773368385 0.02516865174348727 0.04059055046799434 0.04213477592778873 0.04404130010402456 0.011746489132677949
        -0.005956596852832378 0.004807190886915741 0.016490878237383363 0.017489865956926524 -0.008745316085228444 -0.036642343509202716
        -0.05149127293774454 -0.05765658323137644 -0.04452168551548524 -0.016861848419253162 -0.015110047372015397 -0.01539316272067413
        0.020704536167678398 0.06345412766182215 0.056206460348935255 0.0228637048039611 0.006942426272464864 -0.015562772551350848
        -0.04313272636137092 -0.06424471148316233 -0.058406469519775045 -0.04895664570998236 -0.06852990460063192 -0.10481854737647985
        -0.10748876959985257 -0.09867255221198143 -0.1595679581754488 -0.18005392519968916 -0.12408951222367642 -0.1109860854994009
        -0.11386581071213354 -0.09109781080832129 -0.045551201720198685 0.019823103717500543 0.05262596795342805 0.03182316348976505
        0.07063359305205784 0.02290531382140374 -0.022329315439720242 0.014007409024976528 -0.015229582113439675 -0.13043237438642669
        -0.1549509178926275 -0.13235845802197196 -0.1276465302388279 -0.14370168944251935 -0.03871595695149426 0.0377513005444685
        0.018514734127198673 0.020124492453591897 0.031771800042299014 0.03293995220114553 0.06576851867155106 0.11140113186185546
        0.11190146235789686 0.06825249135911288 0.05791258159937616 0.02060207580815824 -0.00002928225394041434 0.04446654489938963
        0.004380503928530972 -0.09416426546347273 -0.07722904919911297 -0.07944663572095458 -0.14555658260148974 -0.21178712281945822
        -0.15291740400411222 -0.11426231658364341 -0.08142108330820348 0.026945428637417355 0.11750497315753065 0.07452339381641501
        0.018888016582154995 0.02601163505763739 0.021517266535739765 0.026525894214544713 0.06859719530767197 0.11966923801297362
        0.07988434214776764 0.04980203917648959 0.038475321357039925 -0.028388001254041947 -0.0878601807042256 -0.11761185194776554
        -0.06765106086716002 0.027421039145791512 0.06479466195496951 0.03873991728500416 0.07288199431210177 0.0860169638327346
        0.05225758695768087 0.020014990301212857 0.0065302071081455885 0.073350865300774 0.06613397026523939 -0.001141908398094076
        -0.0001748081050031626 -0.03819725592938469 -0.051388300264017896 -0.02773309502630348 0.026303674742929564 0.07996872283041659
        0.11158724545133525 0.14686807085153172 0.13235962856703348 0.08419940518001963 0.06528242280444099 0.05663438692533963
        0.005579924718741803 -0.030690735373972877 -0.03930580696187634 -0.035889995523751606 -0.02439316706265125 0.018862860583482303
        0.023597929276080013 -0.03699104496560218 -0.07082501486531344 -0.03757044585669724 -0.0190376451623965 0.006063777570115116
        0.0009023010062085466 -0.021494486482128462 -0.020048932595811943 -0.009887156763992874 0.023515270990234056 0.03297835543572858
        0.026134227103163224 0.014795441975519453 0.0015571054712118168 -0.005034250276279075 0.008153116270684062 0.054727702304498055
        0.09710662386553107 0.09438938809382685 0.07478242290300484 0.04897342127986271 0.048149368991468294 0.06015390440578186
        0.040726959054131325 -0.035916681570393454 -0.04217135996364522 0.012529440594050461 0.015953556365414928 0.011633495251877516
        0.03344924137638773 0.06866228365500494 0.08433269487333715 0.056971900235273355 0.009888921726469517 -0.0005657878685446313
        0.002932595556428291 -0.020823001465628748 -0.023221682711525176 0.006990135563344204 0.03431990304870991 0.03542135130497717
        0.044258747496745646 0.028637892349072814 0.025296047565765156 0.017798500090414858 -0.0190879897396373 -0.017978702077387658
        0.007217636606115758 0.013043112526115943 0.003032002564839378 -0.021310955369424355 -0.00587598280255768 0.012885191082555142
        0.0014479826468415846 0.013398667173967978 0.02589206544993954 0.01876194018394835 0.01594236471751233 0.015123819975442156
        0.005780403748044628 -0.0005664939374204584 0.003380807050860052 -0.02085056388276792 -0.05111502167282055 -0.021125518378967114
        -0.005540952449523876 -0.05472902673278629 -0.11038847730233257 -0.10237757103735955 -0.0590748290484182 -0.04165458728423624
        -0.03321637338908052 -0.0195222089474608 -0.02689361065003883 -0.03284856337616351 -0.08574989988844363 -0.10285805643323258
        -0.08772326420341882 -0.06753639439162853 -0.08512073384488499 -0.07830236657919613 -0.05341687939747588 -0.025875360374229984
        -0.015205902918466109 0.001877847089103802 -0.005067394040855867 -0.020072410629989 -0.032262084613327774 -0.04882550987898423
        -0.07697084086984356 -0.14840612383603174 -0.10710384010871186 -0.09988557712112613 -0.08981760242505765 -0.061096458644311125
        -0.047244952481236786 -0.02135574131906548 -0.03113121896607069 -0.06304757029995878 -0.038649799066158314 0.02219130337682548
        0.05773477924852866 0.055891898749082194 0.06295395304001795 0.10370286409818982 0.11332116093427264 0.10967649751977772
        0.14528073012841378 0.14242251817911306 0.08266057400571834 0.01810029021230469 -0.02083041351327742 -0.009040352536904052
        0.03720758976476187 0.11237940689697204 0.05433572048309823 -0.009666505446589722 -0.025327859537972053 -0.02203901991582572
        0.004218589920792777 0.031354937551117026 -0.03809829038222279 -0.10867902161514638 -0.13941500101079812 -0.15904107150461363
        -0.07464265318004888 -0.011867927526866736 -0.0055487378974809 -0.04395801387620671 -0.04516939431761775 -0.01953221008147153
        0.013292745561877662 0.02006901950855326 0.04345378605603837 0.10173298553873607 0.12109467969869395 0.13274049621945233
        0.18080202669001477 0.18829313085652674 0.09873867794383609 -0.02374168274805645 -0.07978894983551144 -0.09933654913217253
        -0.03450916078008962 0.01997488034009353 0.007433907000154806 0.009021949173872152 0.035868431787793933 0.06615344863866
        0.06884187590544784 0.0898940903058226 0.08934460447943275 0.09347545308667647 0.05539811389043398 0.00895899280123183
        0.003731182660859033 0.03094534174939795 0.04478543408097638 0.05900515842400798 0.05427541267101007 0.026612811339028736
        0.02190224567647338 0.03494172057630851 0.03532708789599198 0.022115008158503834 0.008608105762992412 -0.008766550063456688
        -0.005143033376448722 0.01846654833878463 0.040074827682633325 0.047456752732002075 0.026917107083668332 0.012293215216898596
        0.016313242762495947 0.02429997170679591 0.0189283353077722 0.009832577975155576 0.012604181797951206 0.02136428741845108
        0.02864321139602056 0.02502512936585164 0.015995222880118894 0.01574800150742175 0.007931991759255207 -0.010270831124301818
        -0.007588796655124036 0.0013008340224785527 -0.007197528024131125 -0.01675734801091441 -0.028990356722452305 -0.03857110775264005
        -0.020509204581639653 -0.021827599443462326 -0.03064170883580169 -0.044698599986585534 -0.05187539512687565 -0.027446825284863682
        -0.007962491242597694 0.00029583357944397675 0.017315939757103195 0.028489360193287728 0.03374414194126042 0.03371702880893121
        -0.007746905184061397 -0.0625710276810537 -0.09054740737893667 -0.089228604057903 -0.11538586472670377 -0.15099950722879885
        -0.11707270753909702 -0.12396310318230785 -0.1688692502350592 -0.1702664844411846 -0.19018011793501285 -0.12268705552919223
        -0.10106339058746083 -0.08439112758819042 -0.07311600814882856 -0.07162257300428791 -0.05414421224828529 0.020816565028613225
        0.06076917728702379 0.06440132923331894 0.053898958963302684 -0.05610617317599572 -0.13855286750550538 -0.1067272043554192
        -0.12408811850495706 -0.168849353346099 -0.16961907563608725 -0.1465806601307549 -0.09133577380078323 -0.0533429268092347
        0.03909099935222258 0.14960379787519648 0.14331366783489885 0.059700155669513075 0.02037929536760771 0.04528581973483604
        0.05497595396011205 0.0697247905437014 0.0867180093590941 0.03548709176024338 0.011653739051140213 -0.012075487673401544
        -0.09086925166691691 -0.13928237708696758 -0.11264682724673444 -0.09281600434620771 -0.11519693191783055 -0.11983382760607236
        -0.11300395135481608 -0.15626061007873168 -0.0892960043236935 -0.015008507782761494 0.030624155890473858 0.09063117547011589
        0.15940621661951937 0.15170110081978083 0.1319574131922955 0.10705074089439945 0.026629116650036564 -0.05506299915637837
        -0.1251504827145887 -0.15410752441602332 -0.08677174231395142 0.006690898119204438 0.022625832013422303 0.06946843913917065
        0.1136976271524481 0.0810457355145529 0.08415081532294844 0.056049143005777013 0.02826045219254522 0.023847738359574325
        0.01699482979515779 0.09161730500910777 0.08410888803810714 -0.024380491693563388 -0.05388058954141884 0.052872059410682584
        0.09989568247769762 0.13539381098790051 0.10086652409380424 0.03906080128522821 0.005480732747176799 0.006715578834855559
        0.03597119083879382 0.07933861330503249 0.08754672246113358 0.11438351227381278 0.1221057142682563 0.09025264701597635
        0.07362546263933316 0.05049420605232458 0.02096446221633208 0.020882902260168302 0.04439883248367606 0.02550375178927974
        -0.03475903607814013 -0.06374536200223015 -0.05647773233231009 -0.06817249313943387 -0.059402728718198176 -0.024923041776219026
        -0.013065233618368586 0.008956885382149034 0.045090775713568454 0.028676458219559862 0.02935208401755723 0.03974541005767883
        0.02883874514548152 0.03485875320593793 0.039935188938752426 0.04069313182103786 0.03571669098195196 0.030548281557959817
        0.006972670537745206 0.014532762357506699 0.0383139786912427 0.05407254902612953 0.05633457882798499 0.03752267187102853
        0.018078742375117206 0.02298593369511723 0.002626685352767154 0.006438756654514533 0.036471632555914714 0.02957784601403898
        -0.011971080095482292 -0.038163399163335186 -0.03397162270492708 -0.018228209367363645 0.005103264961028256 0.01357679527586659
        0.00018858147654660855 0.013342338401799332 0.038390469802777785 0.08409735790454864 0.1205121690462631 0.09672103176759987
        0.05768723947190051 0.00986387299369721 -0.038651747419970676 -0.03754944710950335 -0.0022888413587043703 -0.0056114915213376
        -0.00647215595509148 0.003976209446930415 0.0033275515122874323 -0.01605003723246356 -0.016692035007748372 -0.00030947953366982636
        0.008375401477208616 0.013831959489598474 0.017744305258778632 0.017128575551466206 -0.006428520358156579 -0.023687724404143583
        -0.02149545034594612 -0.03484256816381784 -0.03868254670634173 -0.0354161917255381 -0.036535831023987914 -0.0458189306924663
        -0.07547248602599026 -0.06231624995747456 -0.05076717803922725 -0.045419964330169996 -0.0573499514139921 -0.0670504034681524
        -0.05421212617312136 -0.06301233287743435 -0.050409589817381806 -0.05922803597402926 -0.09389382418156719 -0.11096852234524048
        -0.1408543162964528 -0.09907199357414792 -0.08979311675064028 -0.09908434892147686 -0.06714949591039472 -0.03850813957165417
        -0.04616166247537935 -0.03608817312948299 -0.03683609242277928 -0.008058534863573986 -0.030417352720227914 -0.08169289050315119
        -0.07350506775410245 -0.05403986444498544 -0.06797248940382049 -0.04471084557931592 -0.012569926761802587 -0.03519735213276541
        -0.021474815372676436 -0.015956617418755994 -0.015710581121407198 0.009829826223583246 0.011217465407586637 0.003645309878681478
        0.0009757053770601956 0.011472856917886118 0.037829069631716165 0.05886737100225747 0.09684144775743828 0.08203500246593705
        0.06178737483433364 0.029391832089738158 0.017151069388847 0.016383213662122136 -0.008001020387906227 0.0065753271726012585
        0.0259532876022988 0.040621955343143494 -0.011439653637126498 -0.1177147165085074 -0.08698212088669402 -0.02777242294162512
        0.008112153370224192 -0.017238566999520206 -0.05064798474564525 -0.12802022473559432 -0.11696068033473904 -0.0519958929346107
        -0.04261144076008528 -0.05240792812854351 -0.04651605652833849 0.012500402325967549 0.07337633020706831 0.09331478898852638
        0.15707395844516062 0.1480896431884148 0.08433937760524671 0.06365212111833692 0.0789665582174208 0.07583620559017297